V -t * -v 1.0a5 -a 0
A -t * -n 1 -p 0 -o 0x7fffffff -c 30 -a 1
A -t * -h 1 -m 1073741823 -s 0
n -t * -a 4 -s 4 -S UP -v circle -c black -i black
n -t * -a 0 -s 0 -S UP -v circle -c black -i black
n -t * -a 5 -s 5 -S UP -v circle -c black -i black
n -t * -a 1 -s 1 -S UP -v circle -c black -i black
n -t * -a 2 -s 2 -S UP -v circle -c black -i black
n -t * -a 3 -s 3 -S UP -v circle -c black -i black
l -t * -s 0 -d 1 -S UP -r 1000000 -D 0.01 -c black -o right-up
l -t * -s 0 -d 2 -S UP -r 1000000 -D 0.01 -c black -o right-down
l -t * -s 1 -d 4 -S UP -r 1000000 -D 0.01 -c black -o right
l -t * -s 2 -d 3 -S UP -r 1000000 -D 0.01 -c black -o right
l -t * -s 3 -d 5 -S UP -r 1000000 -D 0.01 -c black -o right-up
l -t * -s 4 -d 5 -S UP -r 1000000 -D 0.01 -c black -o right-down
+ -t 0 -s 0 -d 2 -p tcp -e 40 -c 0 -i 0 -a 0 -x {0.0 5.0 0 ------- null}
- -t 0 -s 0 -d 2 -p tcp -e 40 -c 0 -i 0 -a 0 -x {0.0 5.0 0 ------- null}
h -t 0 -s 0 -d 2 -p tcp -e 40 -c 0 -i 0 -a 0 -x {0.0 5.0 -1 ------- null}
r -t 0.01032 -s 0 -d 2 -p tcp -e 40 -c 0 -i 0 -a 0 -x {0.0 5.0 0 ------- null}
+ -t 0.01032 -s 2 -d 3 -p tcp -e 40 -c 0 -i 0 -a 0 -x {0.0 5.0 0 ------- null}
- -t 0.01032 -s 2 -d 3 -p tcp -e 40 -c 0 -i 0 -a 0 -x {0.0 5.0 0 ------- null}
h -t 0.01032 -s 2 -d 3 -p tcp -e 40 -c 0 -i 0 -a 0 -x {0.0 5.0 -1 ------- null}
r -t 0.02064 -s 2 -d 3 -p tcp -e 40 -c 0 -i 0 -a 0 -x {0.0 5.0 0 ------- null}
+ -t 0.02064 -s 3 -d 5 -p tcp -e 40 -c 0 -i 0 -a 0 -x {0.0 5.0 0 ------- null}
- -t 0.02064 -s 3 -d 5 -p tcp -e 40 -c 0 -i 0 -a 0 -x {0.0 5.0 0 ------- null}
h -t 0.02064 -s 3 -d 5 -p tcp -e 40 -c 0 -i 0 -a 0 -x {0.0 5.0 -1 ------- null}
r -t 0.03096 -s 3 -d 5 -p tcp -e 40 -c 0 -i 0 -a 0 -x {0.0 5.0 0 ------- null}
+ -t 0.03096 -s 5 -d 4 -p ack -e 40 -c 0 -i 1 -a 0 -x {5.0 0.0 0 ------- null}
- -t 0.03096 -s 5 -d 4 -p ack -e 40 -c 0 -i 1 -a 0 -x {5.0 0.0 0 ------- null}
h -t 0.03096 -s 5 -d 4 -p ack -e 40 -c 0 -i 1 -a 0 -x {5.0 0.0 -1 ------- null}
r -t 0.04128 -s 5 -d 4 -p ack -e 40 -c 0 -i 1 -a 0 -x {5.0 0.0 0 ------- null}
+ -t 0.04128 -s 4 -d 1 -p ack -e 40 -c 0 -i 1 -a 0 -x {5.0 0.0 0 ------- null}
- -t 0.04128 -s 4 -d 1 -p ack -e 40 -c 0 -i 1 -a 0 -x {5.0 0.0 0 ------- null}
h -t 0.04128 -s 4 -d 1 -p ack -e 40 -c 0 -i 1 -a 0 -x {5.0 0.0 -1 ------- null}
r -t 0.0516 -s 4 -d 1 -p ack -e 40 -c 0 -i 1 -a 0 -x {5.0 0.0 0 ------- null}
+ -t 0.0516 -s 1 -d 0 -p ack -e 40 -c 0 -i 1 -a 0 -x {5.0 0.0 0 ------- null}
- -t 0.0516 -s 1 -d 0 -p ack -e 40 -c 0 -i 1 -a 0 -x {5.0 0.0 0 ------- null}
h -t 0.0516 -s 1 -d 0 -p ack -e 40 -c 0 -i 1 -a 0 -x {5.0 0.0 -1 ------- null}
r -t 0.06192 -s 1 -d 0 -p ack -e 40 -c 0 -i 1 -a 0 -x {5.0 0.0 0 ------- null}
+ -t 0.06192 -s 0 -d 2 -p tcp -e 1040 -c 0 -i 2 -a 0 -x {0.0 5.0 1 ------- null}
- -t 0.06192 -s 0 -d 2 -p tcp -e 1040 -c 0 -i 2 -a 0 -x {0.0 5.0 1 ------- null}
h -t 0.06192 -s 0 -d 2 -p tcp -e 1040 -c 0 -i 2 -a 0 -x {0.0 5.0 -1 ------- null}
+ -t 0.06192 -s 0 -d 2 -p tcp -e 1040 -c 0 -i 3 -a 0 -x {0.0 5.0 2 ------- null}
- -t 0.07024 -s 0 -d 2 -p tcp -e 1040 -c 0 -i 3 -a 0 -x {0.0 5.0 2 ------- null}
h -t 0.07024 -s 0 -d 2 -p tcp -e 1040 -c 0 -i 3 -a 0 -x {0.0 5.0 -1 ------- null}
r -t 0.08024 -s 0 -d 2 -p tcp -e 1040 -c 0 -i 2 -a 0 -x {0.0 5.0 1 ------- null}
+ -t 0.08024 -s 2 -d 3 -p tcp -e 1040 -c 0 -i 2 -a 0 -x {0.0 5.0 1 ------- null}
- -t 0.08024 -s 2 -d 3 -p tcp -e 1040 -c 0 -i 2 -a 0 -x {0.0 5.0 1 ------- null}
h -t 0.08024 -s 2 -d 3 -p tcp -e 1040 -c 0 -i 2 -a 0 -x {0.0 5.0 -1 ------- null}
r -t 0.08856 -s 0 -d 2 -p tcp -e 1040 -c 0 -i 3 -a 0 -x {0.0 5.0 2 ------- null}
+ -t 0.08856 -s 2 -d 3 -p tcp -e 1040 -c 0 -i 3 -a 0 -x {0.0 5.0 2 ------- null}
- -t 0.08856 -s 2 -d 3 -p tcp -e 1040 -c 0 -i 3 -a 0 -x {0.0 5.0 2 ------- null}
h -t 0.08856 -s 2 -d 3 -p tcp -e 1040 -c 0 -i 3 -a 0 -x {0.0 5.0 -1 ------- null}
r -t 0.09856 -s 2 -d 3 -p tcp -e 1040 -c 0 -i 2 -a 0 -x {0.0 5.0 1 ------- null}
+ -t 0.09856 -s 3 -d 5 -p tcp -e 1040 -c 0 -i 2 -a 0 -x {0.0 5.0 1 ------- null}
- -t 0.09856 -s 3 -d 5 -p tcp -e 1040 -c 0 -i 2 -a 0 -x {0.0 5.0 1 ------- null}
h -t 0.09856 -s 3 -d 5 -p tcp -e 1040 -c 0 -i 2 -a 0 -x {0.0 5.0 -1 ------- null}
r -t 0.10688 -s 2 -d 3 -p tcp -e 1040 -c 0 -i 3 -a 0 -x {0.0 5.0 2 ------- null}
+ -t 0.10688 -s 3 -d 5 -p tcp -e 1040 -c 0 -i 3 -a 0 -x {0.0 5.0 2 ------- null}
- -t 0.10688 -s 3 -d 5 -p tcp -e 1040 -c 0 -i 3 -a 0 -x {0.0 5.0 2 ------- null}
h -t 0.10688 -s 3 -d 5 -p tcp -e 1040 -c 0 -i 3 -a 0 -x {0.0 5.0 -1 ------- null}
r -t 0.11688 -s 3 -d 5 -p tcp -e 1040 -c 0 -i 2 -a 0 -x {0.0 5.0 1 ------- null}
+ -t 0.11688 -s 5 -d 4 -p ack -e 40 -c 0 -i 4 -a 0 -x {5.0 0.0 1 ------- null}
- -t 0.11688 -s 5 -d 4 -p ack -e 40 -c 0 -i 4 -a 0 -x {5.0 0.0 1 ------- null}
h -t 0.11688 -s 5 -d 4 -p ack -e 40 -c 0 -i 4 -a 0 -x {5.0 0.0 -1 ------- null}
r -t 0.1252 -s 3 -d 5 -p tcp -e 1040 -c 0 -i 3 -a 0 -x {0.0 5.0 2 ------- null}
+ -t 0.1252 -s 5 -d 4 -p ack -e 40 -c 0 -i 5 -a 0 -x {5.0 0.0 2 ------- null}
- -t 0.1252 -s 5 -d 4 -p ack -e 40 -c 0 -i 5 -a 0 -x {5.0 0.0 2 ------- null}
h -t 0.1252 -s 5 -d 4 -p ack -e 40 -c 0 -i 5 -a 0 -x {5.0 0.0 -1 ------- null}
r -t 0.1272 -s 5 -d 4 -p ack -e 40 -c 0 -i 4 -a 0 -x {5.0 0.0 1 ------- null}
+ -t 0.1272 -s 4 -d 1 -p ack -e 40 -c 0 -i 4 -a 0 -x {5.0 0.0 1 ------- null}
- -t 0.1272 -s 4 -d 1 -p ack -e 40 -c 0 -i 4 -a 0 -x {5.0 0.0 1 ------- null}
h -t 0.1272 -s 4 -d 1 -p ack -e 40 -c 0 -i 4 -a 0 -x {5.0 0.0 -1 ------- null}
r -t 0.13552 -s 5 -d 4 -p ack -e 40 -c 0 -i 5 -a 0 -x {5.0 0.0 2 ------- null}
+ -t 0.13552 -s 4 -d 1 -p ack -e 40 -c 0 -i 5 -a 0 -x {5.0 0.0 2 ------- null}
- -t 0.13552 -s 4 -d 1 -p ack -e 40 -c 0 -i 5 -a 0 -x {5.0 0.0 2 ------- null}
h -t 0.13552 -s 4 -d 1 -p ack -e 40 -c 0 -i 5 -a 0 -x {5.0 0.0 -1 ------- null}
r -t 0.13752 -s 4 -d 1 -p ack -e 40 -c 0 -i 4 -a 0 -x {5.0 0.0 1 ------- null}
+ -t 0.13752 -s 1 -d 0 -p ack -e 40 -c 0 -i 4 -a 0 -x {5.0 0.0 1 ------- null}
- -t 0.13752 -s 1 -d 0 -p ack -e 40 -c 0 -i 4 -a 0 -x {5.0 0.0 1 ------- null}
h -t 0.13752 -s 1 -d 0 -p ack -e 40 -c 0 -i 4 -a 0 -x {5.0 0.0 -1 ------- null}
r -t 0.14584 -s 4 -d 1 -p ack -e 40 -c 0 -i 5 -a 0 -x {5.0 0.0 2 ------- null}
+ -t 0.14584 -s 1 -d 0 -p ack -e 40 -c 0 -i 5 -a 0 -x {5.0 0.0 2 ------- null}
- -t 0.14584 -s 1 -d 0 -p ack -e 40 -c 0 -i 5 -a 0 -x {5.0 0.0 2 ------- null}
h -t 0.14584 -s 1 -d 0 -p ack -e 40 -c 0 -i 5 -a 0 -x {5.0 0.0 -1 ------- null}
r -t 0.14784 -s 1 -d 0 -p ack -e 40 -c 0 -i 4 -a 0 -x {5.0 0.0 1 ------- null}
+ -t 0.14784 -s 0 -d 2 -p tcp -e 1040 -c 0 -i 6 -a 0 -x {0.0 5.0 3 ------- null}
- -t 0.14784 -s 0 -d 2 -p tcp -e 1040 -c 0 -i 6 -a 0 -x {0.0 5.0 3 ------- null}
h -t 0.14784 -s 0 -d 2 -p tcp -e 1040 -c 0 -i 6 -a 0 -x {0.0 5.0 -1 ------- null}
+ -t 0.14784 -s 0 -d 2 -p tcp -e 1040 -c 0 -i 7 -a 0 -x {0.0 5.0 4 ------- null}
r -t 0.15616 -s 1 -d 0 -p ack -e 40 -c 0 -i 5 -a 0 -x {5.0 0.0 2 ------- null}
+ -t 0.15616 -s 0 -d 2 -p tcp -e 1040 -c 0 -i 8 -a 0 -x {0.0 5.0 5 ------- null}
+ -t 0.15616 -s 0 -d 2 -p tcp -e 1040 -c 0 -i 9 -a 0 -x {0.0 5.0 6 ------- null}
- -t 0.15616 -s 0 -d 2 -p tcp -e 1040 -c 0 -i 7 -a 0 -x {0.0 5.0 4 ------- null}
h -t 0.15616 -s 0 -d 2 -p tcp -e 1040 -c 0 -i 7 -a 0 -x {0.0 5.0 -1 ------- null}
- -t 0.16448 -s 0 -d 2 -p tcp -e 1040 -c 0 -i 8 -a 0 -x {0.0 5.0 5 ------- null}
h -t 0.16448 -s 0 -d 2 -p tcp -e 1040 -c 0 -i 8 -a 0 -x {0.0 5.0 -1 ------- null}
r -t 0.16616 -s 0 -d 2 -p tcp -e 1040 -c 0 -i 6 -a 0 -x {0.0 5.0 3 ------- null}
+ -t 0.16616 -s 2 -d 3 -p tcp -e 1040 -c 0 -i 6 -a 0 -x {0.0 5.0 3 ------- null}
- -t 0.16616 -s 2 -d 3 -p tcp -e 1040 -c 0 -i 6 -a 0 -x {0.0 5.0 3 ------- null}
h -t 0.16616 -s 2 -d 3 -p tcp -e 1040 -c 0 -i 6 -a 0 -x {0.0 5.0 -1 ------- null}
- -t 0.1728 -s 0 -d 2 -p tcp -e 1040 -c 0 -i 9 -a 0 -x {0.0 5.0 6 ------- null}
h -t 0.1728 -s 0 -d 2 -p tcp -e 1040 -c 0 -i 9 -a 0 -x {0.0 5.0 -1 ------- null}
r -t 0.17448 -s 0 -d 2 -p tcp -e 1040 -c 0 -i 7 -a 0 -x {0.0 5.0 4 ------- null}
+ -t 0.17448 -s 2 -d 3 -p tcp -e 1040 -c 0 -i 7 -a 0 -x {0.0 5.0 4 ------- null}
- -t 0.17448 -s 2 -d 3 -p tcp -e 1040 -c 0 -i 7 -a 0 -x {0.0 5.0 4 ------- null}
h -t 0.17448 -s 2 -d 3 -p tcp -e 1040 -c 0 -i 7 -a 0 -x {0.0 5.0 -1 ------- null}
r -t 0.1828 -s 0 -d 2 -p tcp -e 1040 -c 0 -i 8 -a 0 -x {0.0 5.0 5 ------- null}
+ -t 0.1828 -s 2 -d 3 -p tcp -e 1040 -c 0 -i 8 -a 0 -x {0.0 5.0 5 ------- null}
- -t 0.1828 -s 2 -d 3 -p tcp -e 1040 -c 0 -i 8 -a 0 -x {0.0 5.0 5 ------- null}
h -t 0.1828 -s 2 -d 3 -p tcp -e 1040 -c 0 -i 8 -a 0 -x {0.0 5.0 -1 ------- null}
r -t 0.18448 -s 2 -d 3 -p tcp -e 1040 -c 0 -i 6 -a 0 -x {0.0 5.0 3 ------- null}
+ -t 0.18448 -s 3 -d 5 -p tcp -e 1040 -c 0 -i 6 -a 0 -x {0.0 5.0 3 ------- null}
- -t 0.18448 -s 3 -d 5 -p tcp -e 1040 -c 0 -i 6 -a 0 -x {0.0 5.0 3 ------- null}
h -t 0.18448 -s 3 -d 5 -p tcp -e 1040 -c 0 -i 6 -a 0 -x {0.0 5.0 -1 ------- null}
r -t 0.19112 -s 0 -d 2 -p tcp -e 1040 -c 0 -i 9 -a 0 -x {0.0 5.0 6 ------- null}
+ -t 0.19112 -s 2 -d 3 -p tcp -e 1040 -c 0 -i 9 -a 0 -x {0.0 5.0 6 ------- null}
- -t 0.19112 -s 2 -d 3 -p tcp -e 1040 -c 0 -i 9 -a 0 -x {0.0 5.0 6 ------- null}
h -t 0.19112 -s 2 -d 3 -p tcp -e 1040 -c 0 -i 9 -a 0 -x {0.0 5.0 -1 ------- null}
r -t 0.1928 -s 2 -d 3 -p tcp -e 1040 -c 0 -i 7 -a 0 -x {0.0 5.0 4 ------- null}
+ -t 0.1928 -s 3 -d 5 -p tcp -e 1040 -c 0 -i 7 -a 0 -x {0.0 5.0 4 ------- null}
- -t 0.1928 -s 3 -d 5 -p tcp -e 1040 -c 0 -i 7 -a 0 -x {0.0 5.0 4 ------- null}
h -t 0.1928 -s 3 -d 5 -p tcp -e 1040 -c 0 -i 7 -a 0 -x {0.0 5.0 -1 ------- null}
r -t 0.20112 -s 2 -d 3 -p tcp -e 1040 -c 0 -i 8 -a 0 -x {0.0 5.0 5 ------- null}
+ -t 0.20112 -s 3 -d 5 -p tcp -e 1040 -c 0 -i 8 -a 0 -x {0.0 5.0 5 ------- null}
- -t 0.20112 -s 3 -d 5 -p tcp -e 1040 -c 0 -i 8 -a 0 -x {0.0 5.0 5 ------- null}
h -t 0.20112 -s 3 -d 5 -p tcp -e 1040 -c 0 -i 8 -a 0 -x {0.0 5.0 -1 ------- null}
r -t 0.2028 -s 3 -d 5 -p tcp -e 1040 -c 0 -i 6 -a 0 -x {0.0 5.0 3 ------- null}
+ -t 0.2028 -s 5 -d 4 -p ack -e 40 -c 0 -i 10 -a 0 -x {5.0 0.0 3 ------- null}
- -t 0.2028 -s 5 -d 4 -p ack -e 40 -c 0 -i 10 -a 0 -x {5.0 0.0 3 ------- null}
h -t 0.2028 -s 5 -d 4 -p ack -e 40 -c 0 -i 10 -a 0 -x {5.0 0.0 -1 ------- null}
r -t 0.20944 -s 2 -d 3 -p tcp -e 1040 -c 0 -i 9 -a 0 -x {0.0 5.0 6 ------- null}
+ -t 0.20944 -s 3 -d 5 -p tcp -e 1040 -c 0 -i 9 -a 0 -x {0.0 5.0 6 ------- null}
- -t 0.20944 -s 3 -d 5 -p tcp -e 1040 -c 0 -i 9 -a 0 -x {0.0 5.0 6 ------- null}
h -t 0.20944 -s 3 -d 5 -p tcp -e 1040 -c 0 -i 9 -a 0 -x {0.0 5.0 -1 ------- null}
r -t 0.21112 -s 3 -d 5 -p tcp -e 1040 -c 0 -i 7 -a 0 -x {0.0 5.0 4 ------- null}
+ -t 0.21112 -s 5 -d 4 -p ack -e 40 -c 0 -i 11 -a 0 -x {5.0 0.0 4 ------- null}
- -t 0.21112 -s 5 -d 4 -p ack -e 40 -c 0 -i 11 -a 0 -x {5.0 0.0 4 ------- null}
h -t 0.21112 -s 5 -d 4 -p ack -e 40 -c 0 -i 11 -a 0 -x {5.0 0.0 -1 ------- null}
r -t 0.21312 -s 5 -d 4 -p ack -e 40 -c 0 -i 10 -a 0 -x {5.0 0.0 3 ------- null}
+ -t 0.21312 -s 4 -d 1 -p ack -e 40 -c 0 -i 10 -a 0 -x {5.0 0.0 3 ------- null}
- -t 0.21312 -s 4 -d 1 -p ack -e 40 -c 0 -i 10 -a 0 -x {5.0 0.0 3 ------- null}
h -t 0.21312 -s 4 -d 1 -p ack -e 40 -c 0 -i 10 -a 0 -x {5.0 0.0 -1 ------- null}
r -t 0.21944 -s 3 -d 5 -p tcp -e 1040 -c 0 -i 8 -a 0 -x {0.0 5.0 5 ------- null}
+ -t 0.21944 -s 5 -d 4 -p ack -e 40 -c 0 -i 12 -a 0 -x {5.0 0.0 5 ------- null}
- -t 0.21944 -s 5 -d 4 -p ack -e 40 -c 0 -i 12 -a 0 -x {5.0 0.0 5 ------- null}
h -t 0.21944 -s 5 -d 4 -p ack -e 40 -c 0 -i 12 -a 0 -x {5.0 0.0 -1 ------- null}
r -t 0.22144 -s 5 -d 4 -p ack -e 40 -c 0 -i 11 -a 0 -x {5.0 0.0 4 ------- null}
+ -t 0.22144 -s 4 -d 1 -p ack -e 40 -c 0 -i 11 -a 0 -x {5.0 0.0 4 ------- null}
- -t 0.22144 -s 4 -d 1 -p ack -e 40 -c 0 -i 11 -a 0 -x {5.0 0.0 4 ------- null}
h -t 0.22144 -s 4 -d 1 -p ack -e 40 -c 0 -i 11 -a 0 -x {5.0 0.0 -1 ------- null}
r -t 0.22344 -s 4 -d 1 -p ack -e 40 -c 0 -i 10 -a 0 -x {5.0 0.0 3 ------- null}
+ -t 0.22344 -s 1 -d 0 -p ack -e 40 -c 0 -i 10 -a 0 -x {5.0 0.0 3 ------- null}
- -t 0.22344 -s 1 -d 0 -p ack -e 40 -c 0 -i 10 -a 0 -x {5.0 0.0 3 ------- null}
h -t 0.22344 -s 1 -d 0 -p ack -e 40 -c 0 -i 10 -a 0 -x {5.0 0.0 -1 ------- null}
r -t 0.22776 -s 3 -d 5 -p tcp -e 1040 -c 0 -i 9 -a 0 -x {0.0 5.0 6 ------- null}
+ -t 0.22776 -s 5 -d 4 -p ack -e 40 -c 0 -i 13 -a 0 -x {5.0 0.0 6 ------- null}
- -t 0.22776 -s 5 -d 4 -p ack -e 40 -c 0 -i 13 -a 0 -x {5.0 0.0 6 ------- null}
h -t 0.22776 -s 5 -d 4 -p ack -e 40 -c 0 -i 13 -a 0 -x {5.0 0.0 -1 ------- null}
r -t 0.22976 -s 5 -d 4 -p ack -e 40 -c 0 -i 12 -a 0 -x {5.0 0.0 5 ------- null}
+ -t 0.22976 -s 4 -d 1 -p ack -e 40 -c 0 -i 12 -a 0 -x {5.0 0.0 5 ------- null}
- -t 0.22976 -s 4 -d 1 -p ack -e 40 -c 0 -i 12 -a 0 -x {5.0 0.0 5 ------- null}
h -t 0.22976 -s 4 -d 1 -p ack -e 40 -c 0 -i 12 -a 0 -x {5.0 0.0 -1 ------- null}
r -t 0.23176 -s 4 -d 1 -p ack -e 40 -c 0 -i 11 -a 0 -x {5.0 0.0 4 ------- null}
+ -t 0.23176 -s 1 -d 0 -p ack -e 40 -c 0 -i 11 -a 0 -x {5.0 0.0 4 ------- null}
- -t 0.23176 -s 1 -d 0 -p ack -e 40 -c 0 -i 11 -a 0 -x {5.0 0.0 4 ------- null}
h -t 0.23176 -s 1 -d 0 -p ack -e 40 -c 0 -i 11 -a 0 -x {5.0 0.0 -1 ------- null}
r -t 0.23376 -s 1 -d 0 -p ack -e 40 -c 0 -i 10 -a 0 -x {5.0 0.0 3 ------- null}
+ -t 0.23376 -s 0 -d 2 -p tcp -e 1040 -c 0 -i 14 -a 0 -x {0.0 5.0 7 ------- null}
- -t 0.23376 -s 0 -d 2 -p tcp -e 1040 -c 0 -i 14 -a 0 -x {0.0 5.0 7 ------- null}
h -t 0.23376 -s 0 -d 2 -p tcp -e 1040 -c 0 -i 14 -a 0 -x {0.0 5.0 -1 ------- null}
+ -t 0.23376 -s 0 -d 2 -p tcp -e 1040 -c 0 -i 15 -a 0 -x {0.0 5.0 8 ------- null}
r -t 0.23808 -s 5 -d 4 -p ack -e 40 -c 0 -i 13 -a 0 -x {5.0 0.0 6 ------- null}
+ -t 0.23808 -s 4 -d 1 -p ack -e 40 -c 0 -i 13 -a 0 -x {5.0 0.0 6 ------- null}
- -t 0.23808 -s 4 -d 1 -p ack -e 40 -c 0 -i 13 -a 0 -x {5.0 0.0 6 ------- null}
h -t 0.23808 -s 4 -d 1 -p ack -e 40 -c 0 -i 13 -a 0 -x {5.0 0.0 -1 ------- null}
r -t 0.24008 -s 4 -d 1 -p ack -e 40 -c 0 -i 12 -a 0 -x {5.0 0.0 5 ------- null}
+ -t 0.24008 -s 1 -d 0 -p ack -e 40 -c 0 -i 12 -a 0 -x {5.0 0.0 5 ------- null}
- -t 0.24008 -s 1 -d 0 -p ack -e 40 -c 0 -i 12 -a 0 -x {5.0 0.0 5 ------- null}
h -t 0.24008 -s 1 -d 0 -p ack -e 40 -c 0 -i 12 -a 0 -x {5.0 0.0 -1 ------- null}
r -t 0.24208 -s 1 -d 0 -p ack -e 40 -c 0 -i 11 -a 0 -x {5.0 0.0 4 ------- null}
+ -t 0.24208 -s 0 -d 2 -p tcp -e 1040 -c 0 -i 16 -a 0 -x {0.0 5.0 9 ------- null}
+ -t 0.24208 -s 0 -d 2 -p tcp -e 1040 -c 0 -i 17 -a 0 -x {0.0 5.0 10 ------- null}
- -t 0.24208 -s 0 -d 2 -p tcp -e 1040 -c 0 -i 15 -a 0 -x {0.0 5.0 8 ------- null}
h -t 0.24208 -s 0 -d 2 -p tcp -e 1040 -c 0 -i 15 -a 0 -x {0.0 5.0 -1 ------- null}
r -t 0.2484 -s 4 -d 1 -p ack -e 40 -c 0 -i 13 -a 0 -x {5.0 0.0 6 ------- null}
+ -t 0.2484 -s 1 -d 0 -p ack -e 40 -c 0 -i 13 -a 0 -x {5.0 0.0 6 ------- null}
- -t 0.2484 -s 1 -d 0 -p ack -e 40 -c 0 -i 13 -a 0 -x {5.0 0.0 6 ------- null}
h -t 0.2484 -s 1 -d 0 -p ack -e 40 -c 0 -i 13 -a 0 -x {5.0 0.0 -1 ------- null}
r -t 0.2504 -s 1 -d 0 -p ack -e 40 -c 0 -i 12 -a 0 -x {5.0 0.0 5 ------- null}
+ -t 0.2504 -s 0 -d 2 -p tcp -e 1040 -c 0 -i 18 -a 0 -x {0.0 5.0 11 ------- null}
+ -t 0.2504 -s 0 -d 2 -p tcp -e 1040 -c 0 -i 19 -a 0 -x {0.0 5.0 12 ------- null}
- -t 0.2504 -s 0 -d 2 -p tcp -e 1040 -c 0 -i 16 -a 0 -x {0.0 5.0 9 ------- null}
h -t 0.2504 -s 0 -d 2 -p tcp -e 1040 -c 0 -i 16 -a 0 -x {0.0 5.0 -1 ------- null}
r -t 0.25208 -s 0 -d 2 -p tcp -e 1040 -c 0 -i 14 -a 0 -x {0.0 5.0 7 ------- null}
+ -t 0.25208 -s 2 -d 3 -p tcp -e 1040 -c 0 -i 14 -a 0 -x {0.0 5.0 7 ------- null}
- -t 0.25208 -s 2 -d 3 -p tcp -e 1040 -c 0 -i 14 -a 0 -x {0.0 5.0 7 ------- null}
h -t 0.25208 -s 2 -d 3 -p tcp -e 1040 -c 0 -i 14 -a 0 -x {0.0 5.0 -1 ------- null}
r -t 0.25872 -s 1 -d 0 -p ack -e 40 -c 0 -i 13 -a 0 -x {5.0 0.0 6 ------- null}
+ -t 0.25872 -s 0 -d 2 -p tcp -e 1040 -c 0 -i 20 -a 0 -x {0.0 5.0 13 ------- null}
+ -t 0.25872 -s 0 -d 2 -p tcp -e 1040 -c 0 -i 21 -a 0 -x {0.0 5.0 14 ------- null}
- -t 0.25872 -s 0 -d 2 -p tcp -e 1040 -c 0 -i 17 -a 0 -x {0.0 5.0 10 ------- null}
h -t 0.25872 -s 0 -d 2 -p tcp -e 1040 -c 0 -i 17 -a 0 -x {0.0 5.0 -1 ------- null}
r -t 0.2604 -s 0 -d 2 -p tcp -e 1040 -c 0 -i 15 -a 0 -x {0.0 5.0 8 ------- null}
+ -t 0.2604 -s 2 -d 3 -p tcp -e 1040 -c 0 -i 15 -a 0 -x {0.0 5.0 8 ------- null}
- -t 0.2604 -s 2 -d 3 -p tcp -e 1040 -c 0 -i 15 -a 0 -x {0.0 5.0 8 ------- null}
h -t 0.2604 -s 2 -d 3 -p tcp -e 1040 -c 0 -i 15 -a 0 -x {0.0 5.0 -1 ------- null}
- -t 0.26704 -s 0 -d 2 -p tcp -e 1040 -c 0 -i 18 -a 0 -x {0.0 5.0 11 ------- null}
h -t 0.26704 -s 0 -d 2 -p tcp -e 1040 -c 0 -i 18 -a 0 -x {0.0 5.0 -1 ------- null}
r -t 0.26872 -s 0 -d 2 -p tcp -e 1040 -c 0 -i 16 -a 0 -x {0.0 5.0 9 ------- null}
+ -t 0.26872 -s 2 -d 3 -p tcp -e 1040 -c 0 -i 16 -a 0 -x {0.0 5.0 9 ------- null}
- -t 0.26872 -s 2 -d 3 -p tcp -e 1040 -c 0 -i 16 -a 0 -x {0.0 5.0 9 ------- null}
h -t 0.26872 -s 2 -d 3 -p tcp -e 1040 -c 0 -i 16 -a 0 -x {0.0 5.0 -1 ------- null}
r -t 0.2704 -s 2 -d 3 -p tcp -e 1040 -c 0 -i 14 -a 0 -x {0.0 5.0 7 ------- null}
+ -t 0.2704 -s 3 -d 5 -p tcp -e 1040 -c 0 -i 14 -a 0 -x {0.0 5.0 7 ------- null}
- -t 0.2704 -s 3 -d 5 -p tcp -e 1040 -c 0 -i 14 -a 0 -x {0.0 5.0 7 ------- null}
h -t 0.2704 -s 3 -d 5 -p tcp -e 1040 -c 0 -i 14 -a 0 -x {0.0 5.0 -1 ------- null}
- -t 0.27536 -s 0 -d 2 -p tcp -e 1040 -c 0 -i 19 -a 0 -x {0.0 5.0 12 ------- null}
h -t 0.27536 -s 0 -d 2 -p tcp -e 1040 -c 0 -i 19 -a 0 -x {0.0 5.0 -1 ------- null}
r -t 0.27704 -s 0 -d 2 -p tcp -e 1040 -c 0 -i 17 -a 0 -x {0.0 5.0 10 ------- null}
+ -t 0.27704 -s 2 -d 3 -p tcp -e 1040 -c 0 -i 17 -a 0 -x {0.0 5.0 10 ------- null}
- -t 0.27704 -s 2 -d 3 -p tcp -e 1040 -c 0 -i 17 -a 0 -x {0.0 5.0 10 ------- null}
h -t 0.27704 -s 2 -d 3 -p tcp -e 1040 -c 0 -i 17 -a 0 -x {0.0 5.0 -1 ------- null}
r -t 0.27872 -s 2 -d 3 -p tcp -e 1040 -c 0 -i 15 -a 0 -x {0.0 5.0 8 ------- null}
+ -t 0.27872 -s 3 -d 5 -p tcp -e 1040 -c 0 -i 15 -a 0 -x {0.0 5.0 8 ------- null}
- -t 0.27872 -s 3 -d 5 -p tcp -e 1040 -c 0 -i 15 -a 0 -x {0.0 5.0 8 ------- null}
h -t 0.27872 -s 3 -d 5 -p tcp -e 1040 -c 0 -i 15 -a 0 -x {0.0 5.0 -1 ------- null}
- -t 0.28368 -s 0 -d 2 -p tcp -e 1040 -c 0 -i 20 -a 0 -x {0.0 5.0 13 ------- null}
h -t 0.28368 -s 0 -d 2 -p tcp -e 1040 -c 0 -i 20 -a 0 -x {0.0 5.0 -1 ------- null}
r -t 0.28536 -s 0 -d 2 -p tcp -e 1040 -c 0 -i 18 -a 0 -x {0.0 5.0 11 ------- null}
+ -t 0.28536 -s 2 -d 3 -p tcp -e 1040 -c 0 -i 18 -a 0 -x {0.0 5.0 11 ------- null}
- -t 0.28536 -s 2 -d 3 -p tcp -e 1040 -c 0 -i 18 -a 0 -x {0.0 5.0 11 ------- null}
h -t 0.28536 -s 2 -d 3 -p tcp -e 1040 -c 0 -i 18 -a 0 -x {0.0 5.0 -1 ------- null}
r -t 0.28704 -s 2 -d 3 -p tcp -e 1040 -c 0 -i 16 -a 0 -x {0.0 5.0 9 ------- null}
+ -t 0.28704 -s 3 -d 5 -p tcp -e 1040 -c 0 -i 16 -a 0 -x {0.0 5.0 9 ------- null}
- -t 0.28704 -s 3 -d 5 -p tcp -e 1040 -c 0 -i 16 -a 0 -x {0.0 5.0 9 ------- null}
h -t 0.28704 -s 3 -d 5 -p tcp -e 1040 -c 0 -i 16 -a 0 -x {0.0 5.0 -1 ------- null}
r -t 0.28872 -s 3 -d 5 -p tcp -e 1040 -c 0 -i 14 -a 0 -x {0.0 5.0 7 ------- null}
+ -t 0.28872 -s 5 -d 4 -p ack -e 40 -c 0 -i 22 -a 0 -x {5.0 0.0 7 ------- null}
- -t 0.28872 -s 5 -d 4 -p ack -e 40 -c 0 -i 22 -a 0 -x {5.0 0.0 7 ------- null}
h -t 0.28872 -s 5 -d 4 -p ack -e 40 -c 0 -i 22 -a 0 -x {5.0 0.0 -1 ------- null}
- -t 0.292 -s 0 -d 2 -p tcp -e 1040 -c 0 -i 21 -a 0 -x {0.0 5.0 14 ------- null}
h -t 0.292 -s 0 -d 2 -p tcp -e 1040 -c 0 -i 21 -a 0 -x {0.0 5.0 -1 ------- null}
r -t 0.29368 -s 0 -d 2 -p tcp -e 1040 -c 0 -i 19 -a 0 -x {0.0 5.0 12 ------- null}
+ -t 0.29368 -s 2 -d 3 -p tcp -e 1040 -c 0 -i 19 -a 0 -x {0.0 5.0 12 ------- null}
- -t 0.29368 -s 2 -d 3 -p tcp -e 1040 -c 0 -i 19 -a 0 -x {0.0 5.0 12 ------- null}
h -t 0.29368 -s 2 -d 3 -p tcp -e 1040 -c 0 -i 19 -a 0 -x {0.0 5.0 -1 ------- null}
r -t 0.29536 -s 2 -d 3 -p tcp -e 1040 -c 0 -i 17 -a 0 -x {0.0 5.0 10 ------- null}
+ -t 0.29536 -s 3 -d 5 -p tcp -e 1040 -c 0 -i 17 -a 0 -x {0.0 5.0 10 ------- null}
- -t 0.29536 -s 3 -d 5 -p tcp -e 1040 -c 0 -i 17 -a 0 -x {0.0 5.0 10 ------- null}
h -t 0.29536 -s 3 -d 5 -p tcp -e 1040 -c 0 -i 17 -a 0 -x {0.0 5.0 -1 ------- null}
r -t 0.29704 -s 3 -d 5 -p tcp -e 1040 -c 0 -i 15 -a 0 -x {0.0 5.0 8 ------- null}
+ -t 0.29704 -s 5 -d 4 -p ack -e 40 -c 0 -i 23 -a 0 -x {5.0 0.0 8 ------- null}
- -t 0.29704 -s 5 -d 4 -p ack -e 40 -c 0 -i 23 -a 0 -x {5.0 0.0 8 ------- null}
h -t 0.29704 -s 5 -d 4 -p ack -e 40 -c 0 -i 23 -a 0 -x {5.0 0.0 -1 ------- null}
r -t 0.29904 -s 5 -d 4 -p ack -e 40 -c 0 -i 22 -a 0 -x {5.0 0.0 7 ------- null}
+ -t 0.29904 -s 4 -d 1 -p ack -e 40 -c 0 -i 22 -a 0 -x {5.0 0.0 7 ------- null}
- -t 0.29904 -s 4 -d 1 -p ack -e 40 -c 0 -i 22 -a 0 -x {5.0 0.0 7 ------- null}
h -t 0.29904 -s 4 -d 1 -p ack -e 40 -c 0 -i 22 -a 0 -x {5.0 0.0 -1 ------- null}
r -t 0.302 -s 0 -d 2 -p tcp -e 1040 -c 0 -i 20 -a 0 -x {0.0 5.0 13 ------- null}
+ -t 0.302 -s 2 -d 3 -p tcp -e 1040 -c 0 -i 20 -a 0 -x {0.0 5.0 13 ------- null}
- -t 0.302 -s 2 -d 3 -p tcp -e 1040 -c 0 -i 20 -a 0 -x {0.0 5.0 13 ------- null}
h -t 0.302 -s 2 -d 3 -p tcp -e 1040 -c 0 -i 20 -a 0 -x {0.0 5.0 -1 ------- null}
r -t 0.30368 -s 2 -d 3 -p tcp -e 1040 -c 0 -i 18 -a 0 -x {0.0 5.0 11 ------- null}
+ -t 0.30368 -s 3 -d 5 -p tcp -e 1040 -c 0 -i 18 -a 0 -x {0.0 5.0 11 ------- null}
- -t 0.30368 -s 3 -d 5 -p tcp -e 1040 -c 0 -i 18 -a 0 -x {0.0 5.0 11 ------- null}
h -t 0.30368 -s 3 -d 5 -p tcp -e 1040 -c 0 -i 18 -a 0 -x {0.0 5.0 -1 ------- null}
r -t 0.30536 -s 3 -d 5 -p tcp -e 1040 -c 0 -i 16 -a 0 -x {0.0 5.0 9 ------- null}
+ -t 0.30536 -s 5 -d 4 -p ack -e 40 -c 0 -i 24 -a 0 -x {5.0 0.0 9 ------- null}
- -t 0.30536 -s 5 -d 4 -p ack -e 40 -c 0 -i 24 -a 0 -x {5.0 0.0 9 ------- null}
h -t 0.30536 -s 5 -d 4 -p ack -e 40 -c 0 -i 24 -a 0 -x {5.0 0.0 -1 ------- null}
r -t 0.30736 -s 5 -d 4 -p ack -e 40 -c 0 -i 23 -a 0 -x {5.0 0.0 8 ------- null}
+ -t 0.30736 -s 4 -d 1 -p ack -e 40 -c 0 -i 23 -a 0 -x {5.0 0.0 8 ------- null}
- -t 0.30736 -s 4 -d 1 -p ack -e 40 -c 0 -i 23 -a 0 -x {5.0 0.0 8 ------- null}
h -t 0.30736 -s 4 -d 1 -p ack -e 40 -c 0 -i 23 -a 0 -x {5.0 0.0 -1 ------- null}
r -t 0.30936 -s 4 -d 1 -p ack -e 40 -c 0 -i 22 -a 0 -x {5.0 0.0 7 ------- null}
+ -t 0.30936 -s 1 -d 0 -p ack -e 40 -c 0 -i 22 -a 0 -x {5.0 0.0 7 ------- null}
- -t 0.30936 -s 1 -d 0 -p ack -e 40 -c 0 -i 22 -a 0 -x {5.0 0.0 7 ------- null}
h -t 0.30936 -s 1 -d 0 -p ack -e 40 -c 0 -i 22 -a 0 -x {5.0 0.0 -1 ------- null}
r -t 0.31032 -s 0 -d 2 -p tcp -e 1040 -c 0 -i 21 -a 0 -x {0.0 5.0 14 ------- null}
+ -t 0.31032 -s 2 -d 3 -p tcp -e 1040 -c 0 -i 21 -a 0 -x {0.0 5.0 14 ------- null}
- -t 0.31032 -s 2 -d 3 -p tcp -e 1040 -c 0 -i 21 -a 0 -x {0.0 5.0 14 ------- null}
h -t 0.31032 -s 2 -d 3 -p tcp -e 1040 -c 0 -i 21 -a 0 -x {0.0 5.0 -1 ------- null}
r -t 0.312 -s 2 -d 3 -p tcp -e 1040 -c 0 -i 19 -a 0 -x {0.0 5.0 12 ------- null}
+ -t 0.312 -s 3 -d 5 -p tcp -e 1040 -c 0 -i 19 -a 0 -x {0.0 5.0 12 ------- null}
- -t 0.312 -s 3 -d 5 -p tcp -e 1040 -c 0 -i 19 -a 0 -x {0.0 5.0 12 ------- null}
h -t 0.312 -s 3 -d 5 -p tcp -e 1040 -c 0 -i 19 -a 0 -x {0.0 5.0 -1 ------- null}
r -t 0.31368 -s 3 -d 5 -p tcp -e 1040 -c 0 -i 17 -a 0 -x {0.0 5.0 10 ------- null}
+ -t 0.31368 -s 5 -d 4 -p ack -e 40 -c 0 -i 25 -a 0 -x {5.0 0.0 10 ------- null}
- -t 0.31368 -s 5 -d 4 -p ack -e 40 -c 0 -i 25 -a 0 -x {5.0 0.0 10 ------- null}
h -t 0.31368 -s 5 -d 4 -p ack -e 40 -c 0 -i 25 -a 0 -x {5.0 0.0 -1 ------- null}
r -t 0.31568 -s 5 -d 4 -p ack -e 40 -c 0 -i 24 -a 0 -x {5.0 0.0 9 ------- null}
+ -t 0.31568 -s 4 -d 1 -p ack -e 40 -c 0 -i 24 -a 0 -x {5.0 0.0 9 ------- null}
- -t 0.31568 -s 4 -d 1 -p ack -e 40 -c 0 -i 24 -a 0 -x {5.0 0.0 9 ------- null}
h -t 0.31568 -s 4 -d 1 -p ack -e 40 -c 0 -i 24 -a 0 -x {5.0 0.0 -1 ------- null}
r -t 0.31768 -s 4 -d 1 -p ack -e 40 -c 0 -i 23 -a 0 -x {5.0 0.0 8 ------- null}
+ -t 0.31768 -s 1 -d 0 -p ack -e 40 -c 0 -i 23 -a 0 -x {5.0 0.0 8 ------- null}
- -t 0.31768 -s 1 -d 0 -p ack -e 40 -c 0 -i 23 -a 0 -x {5.0 0.0 8 ------- null}
h -t 0.31768 -s 1 -d 0 -p ack -e 40 -c 0 -i 23 -a 0 -x {5.0 0.0 -1 ------- null}
r -t 0.31968 -s 1 -d 0 -p ack -e 40 -c 0 -i 22 -a 0 -x {5.0 0.0 7 ------- null}
+ -t 0.31968 -s 0 -d 2 -p tcp -e 1040 -c 0 -i 26 -a 0 -x {0.0 5.0 15 ------- null}
- -t 0.31968 -s 0 -d 2 -p tcp -e 1040 -c 0 -i 26 -a 0 -x {0.0 5.0 15 ------- null}
h -t 0.31968 -s 0 -d 2 -p tcp -e 1040 -c 0 -i 26 -a 0 -x {0.0 5.0 -1 ------- null}
+ -t 0.31968 -s 0 -d 2 -p tcp -e 1040 -c 0 -i 27 -a 0 -x {0.0 5.0 16 ------- null}
r -t 0.32032 -s 2 -d 3 -p tcp -e 1040 -c 0 -i 20 -a 0 -x {0.0 5.0 13 ------- null}
+ -t 0.32032 -s 3 -d 5 -p tcp -e 1040 -c 0 -i 20 -a 0 -x {0.0 5.0 13 ------- null}
- -t 0.32032 -s 3 -d 5 -p tcp -e 1040 -c 0 -i 20 -a 0 -x {0.0 5.0 13 ------- null}
h -t 0.32032 -s 3 -d 5 -p tcp -e 1040 -c 0 -i 20 -a 0 -x {0.0 5.0 -1 ------- null}
r -t 0.322 -s 3 -d 5 -p tcp -e 1040 -c 0 -i 18 -a 0 -x {0.0 5.0 11 ------- null}
+ -t 0.322 -s 5 -d 4 -p ack -e 40 -c 0 -i 28 -a 0 -x {5.0 0.0 11 ------- null}
- -t 0.322 -s 5 -d 4 -p ack -e 40 -c 0 -i 28 -a 0 -x {5.0 0.0 11 ------- null}
h -t 0.322 -s 5 -d 4 -p ack -e 40 -c 0 -i 28 -a 0 -x {5.0 0.0 -1 ------- null}
r -t 0.324 -s 5 -d 4 -p ack -e 40 -c 0 -i 25 -a 0 -x {5.0 0.0 10 ------- null}
+ -t 0.324 -s 4 -d 1 -p ack -e 40 -c 0 -i 25 -a 0 -x {5.0 0.0 10 ------- null}
- -t 0.324 -s 4 -d 1 -p ack -e 40 -c 0 -i 25 -a 0 -x {5.0 0.0 10 ------- null}
h -t 0.324 -s 4 -d 1 -p ack -e 40 -c 0 -i 25 -a 0 -x {5.0 0.0 -1 ------- null}
r -t 0.326 -s 4 -d 1 -p ack -e 40 -c 0 -i 24 -a 0 -x {5.0 0.0 9 ------- null}
+ -t 0.326 -s 1 -d 0 -p ack -e 40 -c 0 -i 24 -a 0 -x {5.0 0.0 9 ------- null}
- -t 0.326 -s 1 -d 0 -p ack -e 40 -c 0 -i 24 -a 0 -x {5.0 0.0 9 ------- null}
h -t 0.326 -s 1 -d 0 -p ack -e 40 -c 0 -i 24 -a 0 -x {5.0 0.0 -1 ------- null}
r -t 0.328 -s 1 -d 0 -p ack -e 40 -c 0 -i 23 -a 0 -x {5.0 0.0 8 ------- null}
+ -t 0.328 -s 0 -d 2 -p tcp -e 1040 -c 0 -i 29 -a 0 -x {0.0 5.0 17 ------- null}
+ -t 0.328 -s 0 -d 2 -p tcp -e 1040 -c 0 -i 30 -a 0 -x {0.0 5.0 18 ------- null}
- -t 0.328 -s 0 -d 2 -p tcp -e 1040 -c 0 -i 27 -a 0 -x {0.0 5.0 16 ------- null}
h -t 0.328 -s 0 -d 2 -p tcp -e 1040 -c 0 -i 27 -a 0 -x {0.0 5.0 -1 ------- null}
r -t 0.32864 -s 2 -d 3 -p tcp -e 1040 -c 0 -i 21 -a 0 -x {0.0 5.0 14 ------- null}
+ -t 0.32864 -s 3 -d 5 -p tcp -e 1040 -c 0 -i 21 -a 0 -x {0.0 5.0 14 ------- null}
- -t 0.32864 -s 3 -d 5 -p tcp -e 1040 -c 0 -i 21 -a 0 -x {0.0 5.0 14 ------- null}
h -t 0.32864 -s 3 -d 5 -p tcp -e 1040 -c 0 -i 21 -a 0 -x {0.0 5.0 -1 ------- null}
r -t 0.33032 -s 3 -d 5 -p tcp -e 1040 -c 0 -i 19 -a 0 -x {0.0 5.0 12 ------- null}
+ -t 0.33032 -s 5 -d 4 -p ack -e 40 -c 0 -i 31 -a 0 -x {5.0 0.0 12 ------- null}
- -t 0.33032 -s 5 -d 4 -p ack -e 40 -c 0 -i 31 -a 0 -x {5.0 0.0 12 ------- null}
h -t 0.33032 -s 5 -d 4 -p ack -e 40 -c 0 -i 31 -a 0 -x {5.0 0.0 -1 ------- null}
r -t 0.33232 -s 5 -d 4 -p ack -e 40 -c 0 -i 28 -a 0 -x {5.0 0.0 11 ------- null}
+ -t 0.33232 -s 4 -d 1 -p ack -e 40 -c 0 -i 28 -a 0 -x {5.0 0.0 11 ------- null}
- -t 0.33232 -s 4 -d 1 -p ack -e 40 -c 0 -i 28 -a 0 -x {5.0 0.0 11 ------- null}
h -t 0.33232 -s 4 -d 1 -p ack -e 40 -c 0 -i 28 -a 0 -x {5.0 0.0 -1 ------- null}
r -t 0.33432 -s 4 -d 1 -p ack -e 40 -c 0 -i 25 -a 0 -x {5.0 0.0 10 ------- null}
+ -t 0.33432 -s 1 -d 0 -p ack -e 40 -c 0 -i 25 -a 0 -x {5.0 0.0 10 ------- null}
- -t 0.33432 -s 1 -d 0 -p ack -e 40 -c 0 -i 25 -a 0 -x {5.0 0.0 10 ------- null}
h -t 0.33432 -s 1 -d 0 -p ack -e 40 -c 0 -i 25 -a 0 -x {5.0 0.0 -1 ------- null}
- -t 0.33632 -s 0 -d 2 -p tcp -e 1040 -c 0 -i 29 -a 0 -x {0.0 5.0 17 ------- null}
h -t 0.33632 -s 0 -d 2 -p tcp -e 1040 -c 0 -i 29 -a 0 -x {0.0 5.0 -1 ------- null}
r -t 0.33632 -s 1 -d 0 -p ack -e 40 -c 0 -i 24 -a 0 -x {5.0 0.0 9 ------- null}
+ -t 0.33632 -s 0 -d 2 -p tcp -e 1040 -c 0 -i 32 -a 0 -x {0.0 5.0 19 ------- null}
+ -t 0.33632 -s 0 -d 2 -p tcp -e 1040 -c 0 -i 33 -a 0 -x {0.0 5.0 20 ------- null}
r -t 0.338 -s 0 -d 2 -p tcp -e 1040 -c 0 -i 26 -a 0 -x {0.0 5.0 15 ------- null}
+ -t 0.338 -s 2 -d 3 -p tcp -e 1040 -c 0 -i 26 -a 0 -x {0.0 5.0 15 ------- null}
- -t 0.338 -s 2 -d 3 -p tcp -e 1040 -c 0 -i 26 -a 0 -x {0.0 5.0 15 ------- null}
h -t 0.338 -s 2 -d 3 -p tcp -e 1040 -c 0 -i 26 -a 0 -x {0.0 5.0 -1 ------- null}
r -t 0.33864 -s 3 -d 5 -p tcp -e 1040 -c 0 -i 20 -a 0 -x {0.0 5.0 13 ------- null}
+ -t 0.33864 -s 5 -d 4 -p ack -e 40 -c 0 -i 34 -a 0 -x {5.0 0.0 13 ------- null}
- -t 0.33864 -s 5 -d 4 -p ack -e 40 -c 0 -i 34 -a 0 -x {5.0 0.0 13 ------- null}
h -t 0.33864 -s 5 -d 4 -p ack -e 40 -c 0 -i 34 -a 0 -x {5.0 0.0 -1 ------- null}
r -t 0.34064 -s 5 -d 4 -p ack -e 40 -c 0 -i 31 -a 0 -x {5.0 0.0 12 ------- null}
+ -t 0.34064 -s 4 -d 1 -p ack -e 40 -c 0 -i 31 -a 0 -x {5.0 0.0 12 ------- null}
- -t 0.34064 -s 4 -d 1 -p ack -e 40 -c 0 -i 31 -a 0 -x {5.0 0.0 12 ------- null}
h -t 0.34064 -s 4 -d 1 -p ack -e 40 -c 0 -i 31 -a 0 -x {5.0 0.0 -1 ------- null}
r -t 0.34264 -s 4 -d 1 -p ack -e 40 -c 0 -i 28 -a 0 -x {5.0 0.0 11 ------- null}
+ -t 0.34264 -s 1 -d 0 -p ack -e 40 -c 0 -i 28 -a 0 -x {5.0 0.0 11 ------- null}
- -t 0.34264 -s 1 -d 0 -p ack -e 40 -c 0 -i 28 -a 0 -x {5.0 0.0 11 ------- null}
h -t 0.34264 -s 1 -d 0 -p ack -e 40 -c 0 -i 28 -a 0 -x {5.0 0.0 -1 ------- null}
- -t 0.34464 -s 0 -d 2 -p tcp -e 1040 -c 0 -i 30 -a 0 -x {0.0 5.0 18 ------- null}
h -t 0.34464 -s 0 -d 2 -p tcp -e 1040 -c 0 -i 30 -a 0 -x {0.0 5.0 -1 ------- null}
r -t 0.34464 -s 1 -d 0 -p ack -e 40 -c 0 -i 25 -a 0 -x {5.0 0.0 10 ------- null}
+ -t 0.34464 -s 0 -d 2 -p tcp -e 1040 -c 0 -i 35 -a 0 -x {0.0 5.0 21 ------- null}
+ -t 0.34464 -s 0 -d 2 -p tcp -e 1040 -c 0 -i 36 -a 0 -x {0.0 5.0 22 ------- null}
r -t 0.34632 -s 0 -d 2 -p tcp -e 1040 -c 0 -i 27 -a 0 -x {0.0 5.0 16 ------- null}
+ -t 0.34632 -s 2 -d 3 -p tcp -e 1040 -c 0 -i 27 -a 0 -x {0.0 5.0 16 ------- null}
- -t 0.34632 -s 2 -d 3 -p tcp -e 1040 -c 0 -i 27 -a 0 -x {0.0 5.0 16 ------- null}
h -t 0.34632 -s 2 -d 3 -p tcp -e 1040 -c 0 -i 27 -a 0 -x {0.0 5.0 -1 ------- null}
r -t 0.34696 -s 3 -d 5 -p tcp -e 1040 -c 0 -i 21 -a 0 -x {0.0 5.0 14 ------- null}
+ -t 0.34696 -s 5 -d 4 -p ack -e 40 -c 0 -i 37 -a 0 -x {5.0 0.0 14 ------- null}
- -t 0.34696 -s 5 -d 4 -p ack -e 40 -c 0 -i 37 -a 0 -x {5.0 0.0 14 ------- null}
h -t 0.34696 -s 5 -d 4 -p ack -e 40 -c 0 -i 37 -a 0 -x {5.0 0.0 -1 ------- null}
r -t 0.34896 -s 5 -d 4 -p ack -e 40 -c 0 -i 34 -a 0 -x {5.0 0.0 13 ------- null}