+ 0 0 2 tcp 40 ------- 0 0.0 5.0 0 0
- 0 0 2 tcp 40 ------- 0 0.0 5.0 0 0
r 0.01032 0 2 tcp 40 ------- 0 0.0 5.0 0 0
+ 0.01032 2 3 tcp 40 ------- 0 0.0 5.0 0 0
- 0.01032 2 3 tcp 40 ------- 0 0.0 5.0 0 0
r 0.02064 2 3 tcp 40 ------- 0 0.0 5.0 0 0
+ 0.02064 3 5 tcp 40 ------- 0 0.0 5.0 0 0
- 0.02064 3 5 tcp 40 ------- 0 0.0 5.0 0 0
r 0.03096 3 5 tcp 40 ------- 0 0.0 5.0 0 0
+ 0.03096 5 4 ack 40 ------- 0 5.0 0.0 0 1
- 0.03096 5 4 ack 40 ------- 0 5.0 0.0 0 1
r 0.04128 5 4 ack 40 ------- 0 5.0 0.0 0 1
+ 0.04128 4 1 ack 40 ------- 0 5.0 0.0 0 1
- 0.04128 4 1 ack 40 ------- 0 5.0 0.0 0 1
r 0.0516 4 1 ack 40 ------- 0 5.0 0.0 0 1
+ 0.0516 1 0 ack 40 ------- 0 5.0 0.0 0 1
- 0.0516 1 0 ack 40 ------- 0 5.0 0.0 0 1
r 0.06192 1 0 ack 40 ------- 0 5.0 0.0 0 1
+ 0.06192 0 2 tcp 1040 ------- 0 0.0 5.0 1 2
- 0.06192 0 2 tcp 1040 ------- 0 0.0 5.0 1 2
+ 0.06192 0 2 tcp 1040 ------- 0 0.0 5.0 2 3
- 0.07024 0 2 tcp 1040 ------- 0 0.0 5.0 2 3
r 0.08024 0 2 tcp 1040 ------- 0 0.0 5.0 1 2
+ 0.08024 2 3 tcp 1040 ------- 0 0.0 5.0 1 2
- 0.08024 2 3 tcp 1040 ------- 0 0.0 5.0 1 2
r 0.08856 0 2 tcp 1040 ------- 0 0.0 5.0 2 3
+ 0.08856 2 3 tcp 1040 ------- 0 0.0 5.0 2 3
- 0.08856 2 3 tcp 1040 ------- 0 0.0 5.0 2 3
r 0.09856 2 3 tcp 1040 ------- 0 0.0 5.0 1 2
+ 0.09856 3 5 tcp 1040 ------- 0 0.0 5.0 1 2
- 0.09856 3 5 tcp 1040 ------- 0 0.0 5.0 1 2
r 0.10688 2 3 tcp 1040 ------- 0 0.0 5.0 2 3
+ 0.10688 3 5 tcp 1040 ------- 0 0.0 5.0 2 3
- 0.10688 3 5 tcp 1040 ------- 0 0.0 5.0 2 3
r 0.11688 3 5 tcp 1040 ------- 0 0.0 5.0 1 2
+ 0.11688 5 4 ack 40 ------- 0 5.0 0.0 1 4
- 0.11688 5 4 ack 40 ------- 0 5.0 0.0 1 4
r 0.1252 3 5 tcp 1040 ------- 0 0.0 5.0 2 3
+ 0.1252 5 4 ack 40 ------- 0 5.0 0.0 2 5
- 0.1252 5 4 ack 40 ------- 0 5.0 0.0 2 5
r 0.1272 5 4 ack 40 ------- 0 5.0 0.0 1 4
+ 0.1272 4 1 ack 40 ------- 0 5.0 0.0 1 4
- 0.1272 4 1 ack 40 ------- 0 5.0 0.0 1 4
r 0.13552 5 4 ack 40 ------- 0 5.0 0.0 2 5
+ 0.13552 4 1 ack 40 ------- 0 5.0 0.0 2 5
- 0.13552 4 1 ack 40 ------- 0 5.0 0.0 2 5
r 0.13752 4 1 ack 40 ------- 0 5.0 0.0 1 4
+ 0.13752 1 0 ack 40 ------- 0 5.0 0.0 1 4
- 0.13752 1 0 ack 40 ------- 0 5.0 0.0 1 4
r 0.14584 4 1 ack 40 ------- 0 5.0 0.0 2 5
+ 0.14584 1 0 ack 40 ------- 0 5.0 0.0 2 5
- 0.14584 1 0 ack 40 ------- 0 5.0 0.0 2 5
r 0.14784 1 0 ack 40 ------- 0 5.0 0.0 1 4
+ 0.14784 0 2 tcp 1040 ------- 0 0.0 5.0 3 6
- 0.14784 0 2 tcp 1040 ------- 0 0.0 5.0 3 6
+ 0.14784 0 2 tcp 1040 ------- 0 0.0 5.0 4 7
r 0.15616 1 0 ack 40 ------- 0 5.0 0.0 2 5
+ 0.15616 0 2 tcp 1040 ------- 0 0.0 5.0 5 8
+ 0.15616 0 2 tcp 1040 ------- 0 0.0 5.0 6 9
- 0.15616 0 2 tcp 1040 ------- 0 0.0 5.0 4 7
- 0.16448 0 2 tcp 1040 ------- 0 0.0 5.0 5 8
r 0.16616 0 2 tcp 1040 ------- 0 0.0 5.0 3 6
+ 0.16616 2 3 tcp 1040 ------- 0 0.0 5.0 3 6
- 0.16616 2 3 tcp 1040 ------- 0 0.0 5.0 3 6
- 0.1728 0 2 tcp 1040 ------- 0 0.0 5.0 6 9
r 0.17448 0 2 tcp 1040 ------- 0 0.0 5.0 4 7
+ 0.17448 2 3 tcp 1040 ------- 0 0.0 5.0 4 7
- 0.17448 2 3 tcp 1040 ------- 0 0.0 5.0 4 7
r 0.1828 0 2 tcp 1040 ------- 0 0.0 5.0 5 8
+ 0.1828 2 3 tcp 1040 ------- 0 0.0 5.0 5 8
- 0.1828 2 3 tcp 1040 ------- 0 0.0 5.0 5 8
r 0.18448 2 3 tcp 1040 ------- 0 0.0 5.0 3 6
+ 0.18448 3 5 tcp 1040 ------- 0 0.0 5.0 3 6
- 0.18448 3 5 tcp 1040 ------- 0 0.0 5.0 3 6
r 0.19112 0 2 tcp 1040 ------- 0 0.0 5.0 6 9
+ 0.19112 2 3 tcp 1040 ------- 0 0.0 5.0 6 9
- 0.19112 2 3 tcp 1040 ------- 0 0.0 5.0 6 9
r 0.1928 2 3 tcp 1040 ------- 0 0.0 5.0 4 7
+ 0.1928 3 5 tcp 1040 ------- 0 0.0 5.0 4 7
- 0.1928 3 5 tcp 1040 ------- 0 0.0 5.0 4 7
r 0.20112 2 3 tcp 1040 ------- 0 0.0 5.0 5 8
+ 0.20112 3 5 tcp 1040 ------- 0 0.0 5.0 5 8
- 0.20112 3 5 tcp 1040 ------- 0 0.0 5.0 5 8
r 0.2028 3 5 tcp 1040 ------- 0 0.0 5.0 3 6
+ 0.2028 5 4 ack 40 ------- 0 5.0 0.0 3 10
- 0.2028 5 4 ack 40 ------- 0 5.0 0.0 3 10
r 0.20944 2 3 tcp 1040 ------- 0 0.0 5.0 6 9
+ 0.20944 3 5 tcp 1040 ------- 0 0.0 5.0 6 9
- 0.20944 3 5 tcp 1040 ------- 0 0.0 5.0 6 9
r 0.21112 3 5 tcp 1040 ------- 0 0.0 5.0 4 7
+ 0.21112 5 4 ack 40 ------- 0 5.0 0.0 4 11
- 0.21112 5 4 ack 40 ------- 0 5.0 0.0 4 11
r 0.21312 5 4 ack 40 ------- 0 5.0 0.0 3 10
+ 0.21312 4 1 ack 40 ------- 0 5.0 0.0 3 10
- 0.21312 4 1 ack 40 ------- 0 5.0 0.0 3 10
r 0.21944 3 5 tcp 1040 ------- 0 0.0 5.0 5 8
+ 0.21944 5 4 ack 40 ------- 0 5.0 0.0 5 12
- 0.21944 5 4 ack 40 ------- 0 5.0 0.0 5 12
r 0.22144 5 4 ack 40 ------- 0 5.0 0.0 4 11
+ 0.22144 4 1 ack 40 ------- 0 5.0 0.0 4 11
- 0.22144 4 1 ack 40 ------- 0 5.0 0.0 4 11
r 0.22344 4 1 ack 40 ------- 0 5.0 0.0 3 10
+ 0.22344 1 0 ack 40 ------- 0 5.0 0.0 3 10
- 0.22344 1 0 ack 40 ------- 0 5.0 0.0 3 10
r 0.22776 3 5 tcp 1040 ------- 0 0.0 5.0 6 9
+ 0.22776 5 4 ack 40 ------- 0 5.0 0.0 6 13
- 0.22776 5 4 ack 40 ------- 0 5.0 0.0 6 13
r 0.22976 5 4 ack 40 ------- 0 5.0 0.0 5 12
+ 0.22976 4 1 ack 40 ------- 0 5.0 0.0 5 12
- 0.22976 4 1 ack 40 ------- 0 5.0 0.0 5 12
r 0.23176 4 1 ack 40 ------- 0 5.0 0.0 4 11
+ 0.23176 1 0 ack 40 ------- 0 5.0 0.0 4 11
- 0.23176 1 0 ack 40 ------- 0 5.0 0.0 4 11
r 0.23376 1 0 ack 40 ------- 0 5.0 0.0 3 10
+ 0.23376 0 2 tcp 1040 ------- 0 0.0 5.0 7 14
- 0.23376 0 2 tcp 1040 ------- 0 0.0 5.0 7 14
+ 0.23376 0 2 tcp 1040 ------- 0 0.0 5.0 8 15
r 0.23808 5 4 ack 40 ------- 0 5.0 0.0 6 13
+ 0.23808 4 1 ack 40 ------- 0 5.0 0.0 6 13
- 0.23808 4 1 ack 40 ------- 0 5.0 0.0 6 13
r 0.24008 4 1 ack 40 ------- 0 5.0 0.0 5 12
+ 0.24008 1 0 ack 40 ------- 0 5.0 0.0 5 12
- 0.24008 1 0 ack 40 ------- 0 5.0 0.0 5 12
r 0.24208 1 0 ack 40 ------- 0 5.0 0.0 4 11
+ 0.24208 0 2 tcp 1040 ------- 0 0.0 5.0 9 16
+ 0.24208 0 2 tcp 1040 ------- 0 0.0 5.0 10 17
- 0.24208 0 2 tcp 1040 ------- 0 0.0 5.0 8 15
r 0.2484 4 1 ack 40 ------- 0 5.0 0.0 6 13
+ 0.2484 1 0 ack 40 ------- 0 5.0 0.0 6 13
- 0.2484 1 0 ack 40 ------- 0 5.0 0.0 6 13
r 0.2504 1 0 ack 40 ------- 0 5.0 0.0 5 12
+ 0.2504 0 2 tcp 1040 ------- 0 0.0 5.0 11 18
+ 0.2504 0 2 tcp 1040 ------- 0 0.0 5.0 12 19
- 0.2504 0 2 tcp 1040 ------- 0 0.0 5.0 9 16
r 0.25208 0 2 tcp 1040 ------- 0 0.0 5.0 7 14
+ 0.25208 2 3 tcp 1040 ------- 0 0.0 5.0 7 14
- 0.25208 2 3 tcp 1040 ------- 0 0.0 5.0 7 14
r 0.25872 1 0 ack 40 ------- 0 5.0 0.0 6 13
+ 0.25872 0 2 tcp 1040 ------- 0 0.0 5.0 13 20
+ 0.25872 0 2 tcp 1040 ------- 0 0.0 5.0 14 21
- 0.25872 0 2 tcp 1040 ------- 0 0.0 5.0 10 17
r 0.2604 0 2 tcp 1040 ------- 0 0.0 5.0 8 15
+ 0.2604 2 3 tcp 1040 ------- 0 0.0 5.0 8 15
- 0.2604 2 3 tcp 1040 ------- 0 0.0 5.0 8 15
- 0.26704 0 2 tcp 1040 ------- 0 0.0 5.0 11 18
r 0.26872 0 2 tcp 1040 ------- 0 0.0 5.0 9 16
+ 0.26872 2 3 tcp 1040 ------- 0 0.0 5.0 9 16
- 0.26872 2 3 tcp 1040 ------- 0 0.0 5.0 9 16
r 0.2704 2 3 tcp 1040 ------- 0 0.0 5.0 7 14
+ 0.2704 3 5 tcp 1040 ------- 0 0.0 5.0 7 14
- 0.2704 3 5 tcp 1040 ------- 0 0.0 5.0 7 14
- 0.27536 0 2 tcp 1040 ------- 0 0.0 5.0 12 19
r 0.27704 0 2 tcp 1040 ------- 0 0.0 5.0 10 17
+ 0.27704 2 3 tcp 1040 ------- 0 0.0 5.0 10 17
- 0.27704 2 3 tcp 1040 ------- 0 0.0 5.0 10 17
r 0.27872 2 3 tcp 1040 ------- 0 0.0 5.0 8 15
+ 0.27872 3 5 tcp 1040 ------- 0 0.0 5.0 8 15
- 0.27872 3 5 tcp 1040 ------- 0 0.0 5.0 8 15
- 0.28368 0 2 tcp 1040 ------- 0 0.0 5.0 13 20
r 0.28536 0 2 tcp 1040 ------- 0 0.0 5.0 11 18
+ 0.28536 2 3 tcp 1040 ------- 0 0.0 5.0 11 18
- 0.28536 2 3 tcp 1040 ------- 0 0.0 5.0 11 18
r 0.28704 2 3 tcp 1040 ------- 0 0.0 5.0 9 16
+ 0.28704 3 5 tcp 1040 ------- 0 0.0 5.0 9 16
- 0.28704 3 5 tcp 1040 ------- 0 0.0 5.0 9 16
r 0.28872 3 5 tcp 1040 ------- 0 0.0 5.0 7 14
+ 0.28872 5 4 ack 40 ------- 0 5.0 0.0 7 22
- 0.28872 5 4 ack 40 ------- 0 5.0 0.0 7 22
- 0.292 0 2 tcp 1040 ------- 0 0.0 5.0 14 21
r 0.29368 0 2 tcp 1040 ------- 0 0.0 5.0 12 19
+ 0.29368 2 3 tcp 1040 ------- 0 0.0 5.0 12 19
- 0.29368 2 3 tcp 1040 ------- 0 0.0 5.0 12 19
r 0.29536 2 3 tcp 1040 ------- 0 0.0 5.0 10 17
+ 0.29536 3 5 tcp 1040 ------- 0 0.0 5.0 10 17
- 0.29536 3 5 tcp 1040 ------- 0 0.0 5.0 10 17
r 0.29704 3 5 tcp 1040 ------- 0 0.0 5.0 8 15
+ 0.29704 5 4 ack 40 ------- 0 5.0 0.0 8 23
- 0.29704 5 4 ack 40 ------- 0 5.0 0.0 8 23
r 0.29904 5 4 ack 40 ------- 0 5.0 0.0 7 22
+ 0.29904 4 1 ack 40 ------- 0 5.0 0.0 7 22
- 0.29904 4 1 ack 40 ------- 0 5.0 0.0 7 22
r 0.302 0 2 tcp 1040 ------- 0 0.0 5.0 13 20
+ 0.302 2 3 tcp 1040 ------- 0 0.0 5.0 13 20
- 0.302 2 3 tcp 1040 ------- 0 0.0 5.0 13 20
r 0.30368 2 3 tcp 1040 ------- 0 0.0 5.0 11 18
+ 0.30368 3 5 tcp 1040 ------- 0 0.0 5.0 11 18
- 0.30368 3 5 tcp 1040 ------- 0 0.0 5.0 11 18
r 0.30536 3 5 tcp 1040 ------- 0 0.0 5.0 9 16
+ 0.30536 5 4 ack 40 ------- 0 5.0 0.0 9 24
- 0.30536 5 4 ack 40 ------- 0 5.0 0.0 9 24
r 0.30736 5 4 ack 40 ------- 0 5.0 0.0 8 23
+ 0.30736 4 1 ack 40 ------- 0 5.0 0.0 8 23
- 0.30736 4 1 ack 40 ------- 0 5.0 0.0 8 23
r 0.30936 4 1 ack 40 ------- 0 5.0 0.0 7 22
+ 0.30936 1 0 ack 40 ------- 0 5.0 0.0 7 22
- 0.30936 1 0 ack 40 ------- 0 5.0 0.0 7 22
r 0.31032 0 2 tcp 1040 ------- 0 0.0 5.0 14 21
+ 0.31032 2 3 tcp 1040 ------- 0 0.0 5.0 14 21
- 0.31032 2 3 tcp 1040 ------- 0 0.0 5.0 14 21
r 0.312 2 3 tcp 1040 ------- 0 0.0 5.0 12 19
+ 0.312 3 5 tcp 1040 ------- 0 0.0 5.0 12 19
- 0.312 3 5 tcp 1040 ------- 0 0.0 5.0 12 19
r 0.31368 3 5 tcp 1040 ------- 0 0.0 5.0 10 17
+ 0.31368 5 4 ack 40 ------- 0 5.0 0.0 10 25
- 0.31368 5 4 ack 40 ------- 0 5.0 0.0 10 25
r 0.31568 5 4 ack 40 ------- 0 5.0 0.0 9 24
+ 0.31568 4 1 ack 40 ------- 0 5.0 0.0 9 24
- 0.31568 4 1 ack 40 ------- 0 5.0 0.0 9 24
r 0.31768 4 1 ack 40 ------- 0 5.0 0.0 8 23
+ 0.31768 1 0 ack 40 ------- 0 5.0 0.0 8 23
- 0.31768 1 0 ack 40 ------- 0 5.0 0.0 8 23
r 0.31968 1 0 ack 40 ------- 0 5.0 0.0 7 22
+ 0.31968 0 2 tcp 1040 ------- 0 0.0 5.0 15 26
- 0.31968 0 2 tcp 1040 ------- 0 0.0 5.0 15 26
+ 0.31968 0 2 tcp 1040 ------- 0 0.0 5.0 16 27
r 0.32032 2 3 tcp 1040 ------- 0 0.0 5.0 13 20
+ 0.32032 3 5 tcp 1040 ------- 0 0.0 5.0 13 20
- 0.32032 3 5 tcp 1040 ------- 0 0.0 5.0 13 20
r 0.322 3 5 tcp 1040 ------- 0 0.0 5.0 11 18
+ 0.322 5 4 ack 40 ------- 0 5.0 0.0 11 28
- 0.322 5 4 ack 40 ------- 0 5.0 0.0 11 28
r 0.324 5 4 ack 40 ------- 0 5.0 0.0 10 25
+ 0.324 4 1 ack 40 ------- 0 5.0 0.0 10 25
- 0.324 4 1 ack 40 ------- 0 5.0 0.0 10 25
r 0.326 4 1 ack 40 ------- 0 5.0 0.0 9 24
+ 0.326 1 0 ack 40 ------- 0 5.0 0.0 9 24
- 0.326 1 0 ack 40 ------- 0 5.0 0.0 9 24
r 0.328 1 0 ack 40 ------- 0 5.0 0.0 8 23
+ 0.328 0 2 tcp 1040 ------- 0 0.0 5.0 17 29
+ 0.328 0 2 tcp 1040 ------- 0 0.0 5.0 18 30
- 0.328 0 2 tcp 1040 ------- 0 0.0 5.0 16 27
r 0.32864 2 3 tcp 1040 ------- 0 0.0 5.0 14 21
+ 0.32864 3 5 tcp 1040 ------- 0 0.0 5.0 14 21
- 0.32864 3 5 tcp 1040 ------- 0 0.0 5.0 14 21
r 0.33032 3 5 tcp 1040 ------- 0 0.0 5.0 12 19
+ 0.33032 5 4 ack 40 ------- 0 5.0 0.0 12 31
- 0.33032 5 4 ack 40 ------- 0 5.0 0.0 12 31
r 0.33232 5 4 ack 40 ------- 0 5.0 0.0 11 28
+ 0.33232 4 1 ack 40 ------- 0 5.0 0.0 11 28
- 0.33232 4 1 ack 40 ------- 0 5.0 0.0 11 28
r 0.33432 4 1 ack 40 ------- 0 5.0 0.0 10 25
+ 0.33432 1 0 ack 40 ------- 0 5.0 0.0 10 25
- 0.33432 1 0 ack 40 ------- 0 5.0 0.0 10 25
- 0.33632 0 2 tcp 1040 ------- 0 0.0 5.0 17 29
r 0.33632 1 0 ack 40 ------- 0 5.0 0.0 9 24
+ 0.33632 0 2 tcp 1040 ------- 0 0.0 5.0 19 32
+ 0.33632 0 2 tcp 1040 ------- 0 0.0 5.0 20 33
r 0.338 0 2 tcp 1040 ------- 0 0.0 5.0 15 26
+ 0.338 2 3 tcp 1040 ------- 0 0.0 5.0 15 26
- 0.338 2 3 tcp 1040 ------- 0 0.0 5.0 15 26
r 0.33864 3 5 tcp 1040 ------- 0 0.0 5.0 13 20
+ 0.33864 5 4 ack 40 ------- 0 5.0 0.0 13 34
- 0.33864 5 4 ack 40 ------- 0 5.0 0.0 13 34
r 0.34064 5 4 ack 40 ------- 0 5.0 0.0 12 31
+ 0.34064 4 1 ack 40 ------- 0 5.0 0.0 12 31
- 0.34064 4 1 ack 40 ------- 0 5.0 0.0 12 31
r 0.34264 4 1 ack 40 ------- 0 5.0 0.0 11 28
+ 0.34264 1 0 ack 40 ------- 0 5.0 0.0 11 28
- 0.34264 1 0 ack 40 ------- 0 5.0 0.0 11 28
- 0.34464 0 2 tcp 1040 ------- 0 0.0 5.0 18 30
r 0.34464 1 0 ack 40 ------- 0 5.0 0.0 10 25
+ 0.34464 0 2 tcp 1040 ------- 0 0.0 5.0 21 35
+ 0.34464 0 2 tcp 1040 ------- 0 0.0 5.0 22 36
r 0.34632 0 2 tcp 1040 ------- 0 0.0 5.0 16 27
+ 0.34632 2 3 tcp 1040 ------- 0 0.0 5.0 16 27
- 0.34632 2 3 tcp 1040 ------- 0 0.0 5.0 16 27
r 0.34696 3 5 tcp 1040 ------- 0 0.0 5.0 14 21
+ 0.34696 5 4 ack 40 ------- 0 5.0 0.0 14 37
- 0.34696 5 4 ack 40 ------- 0 5.0 0.0 14 37
r 0.34896 5 4 ack 40 ------- 0 5.0 0.0 13 34
+ 0.34896 4 1 ack 40 ------- 0 5.0 0.0 13 34
- 0.34896 4 1 ack 40 ------- 0 5.0 0.0 13 34
r 0.35096 4 1 ack 40 ------- 0 5.0 0.0 12 31
+ 0.35096 1 0 ack 40 ------- 0 5.0 0.0 12 31
- 0.35096 1 0 ack 40 ------- 0 5.0 0.0 12 31
- 0.35296 0 2 tcp 1040 ------- 0 0.0 5.0 19 32
r 0.35296 1 0 ack 40 ------- 0 5.0 0.0 11 28
+ 0.35296 0 2 tcp 1040 ------- 0 0.0 5.0 23 38
+ 0.35296 0 2 tcp 1040 ------- 0 0.0 5.0 24 39
r 0.35464 0 2 tcp 1040 ------- 0 0.0 5.0 17 29
+ 0.35464 2 3 tcp 1040 ------- 0 0.0 5.0 17 29
- 0.35464 2 3 tcp 1040 ------- 0 0.0 5.0 17 29
r 0.35632 2 3 tcp 1040 ------- 0 0.0 5.0 15 26
+ 0.35632 3 5 tcp 1040 ------- 0 0.0 5.0 15 26
- 0.35632 3 5 tcp 1040 ------- 0 0.0 5.0 15 26
r 0.35728 5 4 ack 40 ------- 0 5.0 0.0 14 37
+ 0.35728 4 1 ack 40 ------- 0 5.0 0.0 14 37
- 0.35728 4 1 ack 40 ------- 0 5.0 0.0 14 37
r 0.35928 4 1 ack 40 ------- 0 5.0 0.0 13 34
+ 0.35928 1 0 ack 40 ------- 0 5.0 0.0 13 34
- 0.35928 1 0 ack 40 ------- 0 5.0 0.0 13 34
- 0.36128 0 2 tcp 1040 ------- 0 0.0 5.0 20 33
r 0.36128 1 0 ack 40 ------- 0 5.0 0.0 12 31
+ 0.36128 0 2 tcp 1040 ------- 0 0.0 5.0 25 40
+ 0.36128 0 2 tcp 1040 ------- 0 0.0 5.0 26 41
r 0.36296 0 2 tcp 1040 ------- 0 0.0 5.0 18 30
+ 0.36296 2 3 tcp 1040 ------- 0 0.0 5.0 18 30
- 0.36296 2 3 tcp 1040 ------- 0 0.0 5.0 18 30
r 0.36464 2 3 tcp 1040 ------- 0 0.0 5.0 16 27
+ 0.36464 3 5 tcp 1040 ------- 0 0.0 5.0 16 27
- 0.36464 3 5 tcp 1040 ------- 0 0.0 5.0 16 27
r 0.3676 4 1 ack 40 ------- 0 5.0 0.0 14 37
+ 0.3676 1 0 ack 40 ------- 0 5.0 0.0 14 37
- 0.3676 1 0 ack 40 ------- 0 5.0 0.0 14 37
- 0.3696 0 2 tcp 1040 ------- 0 0.0 5.0 21 35
r 0.3696 1 0 ack 40 ------- 0 5.0 0.0 13 34
+ 0.3696 0 2 tcp 1040 ------- 0 0.0 5.0 27 42
+ 0.3696 0 2 tcp 1040 ------- 0 0.0 5.0 28 43
r 0.37128 0 2 tcp 1040 ------- 0 0.0 5.0 19 32
+ 0.37128 2 3 tcp 1040 ------- 0 0.0 5.0 19 32
- 0.37128 2 3 tcp 1040 ------- 0 0.0 5.0 19 32
r 0.37296 2 3 tcp 1040 ------- 0 0.0 5.0 17 29
+ 0.37296 3 5 tcp 1040 ------- 0 0.0 5.0 17 29
- 0.37296 3 5 tcp 1040 ------- 0 0.0 5.0 17 29
r 0.37464 3 5 tcp 1040 ------- 0 0.0 5.0 15 26
+ 0.37464 5 4 ack 40 ------- 0 5.0 0.0 15 44
- 0.37464 5 4 ack 40 ------- 0 5.0 0.0 15 44
- 0.37792 0 2 tcp 1040 ------- 0 0.0 5.0 22 36
r 0.37792 1 0 ack 40 ------- 0 5.0 0.0 14 37
+ 0.37792 0 2 tcp 1040 ------- 0 0.0 5.0 29 45
+ 0.37792 0 2 tcp 1040 ------- 0 0.0 5.0 30 46
r 0.3796 0 2 tcp 1040 ------- 0 0.0 5.0 20 33
+ 0.3796 2 3 tcp 1040 ------- 0 0.0 5.0 20 33
- 0.3796 2 3 tcp 1040 ------- 0 0.0 5.0 20 33
r 0.38128 2 3 tcp 1040 ------- 0 0.0 5.0 18 30
+ 0.38128 3 5 tcp 1040 ------- 0 0.0 5.0 18 30
- 0.38128 3 5 tcp 1040 ------- 0 0.0 5.0 18 30
r 0.38296 3 5 tcp 1040 ------- 0 0.0 5.0 16 27
+ 0.38296 5 4 ack 40 ------- 0 5.0 0.0 16 47
- 0.38296 5 4 ack 40 ------- 0 5.0 0.0 16 47
r 0.38496 5 4 ack 40 ------- 0 5.0 0.0 15 44
+ 0.38496 4 1 ack 40 ------- 0 5.0 0.0 15 44
- 0.38496 4 1 ack 40 ------- 0 5.0 0.0 15 44
- 0.38624 0 2 tcp 1040 ------- 0 0.0 5.0 23 38
r 0.38792 0 2 tcp 1040 ------- 0 0.0 5.0 21 35
+ 0.38792 2 3 tcp 1040 ------- 0 0.0 5.0 21 35
- 0.38792 2 3 tcp 1040 ------- 0 0.0 5.0 21 35
r 0.3896 2 3 tcp 1040 ------- 0 0.0 5.0 19 32
+ 0.3896 3 5 tcp 1040 ------- 0 0.0 5.0 19 32
- 0.3896 3 5 tcp 1040 ------- 0 0.0 5.0 19 32
r 0.39128 3 5 tcp 1040 ------- 0 0.0 5.0 17 29
+ 0.39128 5 4 ack 40 ------- 0 5.0 0.0 17 48
- 0.39128 5 4 ack 40 ------- 0 5.0 0.0 17 48
r 0.39328 5 4 ack 40 ------- 0 5.0 0.0 16 47
+ 0.39328 4 1 ack 40 ------- 0 5.0 0.0 16 47
- 0.39328 4 1 ack 40 ------- 0 5.0 0.0 16 47
- 0.39456 0 2 tcp 1040 ------- 0 0.0 5.0 24 39
r 0.39528 4 1 ack 40 ------- 0 5.0 0.0 15 44
+ 0.39528 1 0 ack 40 ------- 0 5.0 0.0 15 44
- 0.39528 1 0 ack 40 ------- 0 5.0 0.0 15 44
r 0.39624 0 2 tcp 1040 ------- 0 0.0 5.0 22 36
+ 0.39624 2 3 tcp 1040 ------- 0 0.0 5.0 22 36
- 0.39624 2 3 tcp 1040 ------- 0 0.0 5.0 22 36
r 0.39792 2 3 tcp 1040 ------- 0 0.0 5.0 20 33
+ 0.39792 3 5 tcp 1040 ------- 0 0.0 5.0 20 33
- 0.39792 3 5 tcp 1040 ------- 0 0.0 5.0 20 33
r 0.3996 3 5 tcp 1040 ------- 0 0.0 5.0 18 30
+ 0.3996 5 4 ack 40 ------- 0 5.0 0.0 18 49
- 0.3996 5 4 ack 40 ------- 0 5.0 0.0 18 49
r 0.4016 5 4 ack 40 ------- 0 5.0 0.0 17 48
+ 0.4016 4 1 ack 40 ------- 0 5.0 0.0 17 48
- 0.4016 4 1 ack 40 ------- 0 5.0 0.0 17 48
- 0.40288 0 2 tcp 1040 ------- 0 0.0 5.0 25 40
r 0.4036 4 1 ack 40 ------- 0 5.0 0.0 16 47
+ 0.4036 1 0 ack 40 ------- 0 5.0 0.0 16 47
- 0.4036 1 0 ack 40 ------- 0 5.0 0.0 16 47
r 0.40456 0 2 tcp 1040 ------- 0 0.0 5.0 23 38
+ 0.40456 2 3 tcp 1040 ------- 0 0.0 5.0 23 38
- 0.40456 2 3 tcp 1040 ------- 0 0.0 5.0 23 38
r 0.4056 1 0 ack 40 ------- 0 5.0 0.0 15 44
+ 0.4056 0 2 tcp 1040 ------- 0 0.0 5.0 31 50
+ 0.4056 0 2 tcp 1040 ------- 0 0.0 5.0 32 51
r 0.40624 2 3 tcp 1040 ------- 0 0.0 5.0 21 35
+ 0.40624 3 5 tcp 1040 ------- 0 0.0 5.0 21 35
- 0.40624 3 5 tcp 1040 ------- 0 0.0 5.0 21 35
r 0.40792 3 5 tcp 1040 ------- 0 0.0 5.0 19 32
+ 0.40792 5 4 ack 40 ------- 0 5.0 0.0 19 52
- 0.40792 5 4 ack 40 ------- 0 5.0 0.0 19 52
r 0.40992 5 4 ack 40 ------- 0 5.0 0.0 18 49
+ 0.40992 4 1 ack 40 ------- 0 5.0 0.0 18 49
- 0.40992 4 1 ack 40 ------- 0 5.0 0.0 18 49
- 0.4112 0 2 tcp 1040 ------- 0 0.0 5.0 26 41
r 0.41192 4 1 ack 40 ------- 0 5.0 0.0 17 48
+ 0.41192 1 0 ack 40 ------- 0 5.0 0.0 17 48
- 0.41192 1 0 ack 40 ------- 0 5.0 0.0 17 48
r 0.41288 0 2 tcp 1040 ------- 0 0.0 5.0 24 39
+ 0.41288 2 3 tcp 1040 ------- 0 0.0 5.0 24 39
- 0.41288 2 3 tcp 1040 ------- 0 0.0 5.0 24 39
r 0.41392 1 0 ack 40 ------- 0 5.0 0.0 16 47
+ 0.41392 0 2 tcp 1040 ------- 0 0.0 5.0 33 53
+ 0.41392 0 2 tcp 1040 ------- 0 0.0 5.0 34 54
r 0.41456 2 3 tcp 1040 ------- 0 0.0 5.0 22 36
+ 0.41456 3 5 tcp 1040 ------- 0 0.0 5.0 22 36
- 0.41456 3 5 tcp 1040 ------- 0 0.0 5.0 22 36
r 0.41624 3 5 tcp 1040 ------- 0 0.0 5.0 20 33
+ 0.41624 5 4 ack 40 ------- 0 5.0 0.0 20 55
- 0.41624 5 4 ack 40 ------- 0 5.0 0.0 20 55
r 0.41824 5 4 ack 40 ------- 0 5.0 0.0 19 52
+ 0.41824 4 1 ack 40 ------- 0 5.0 0.0 19 52
- 0.41824 4 1 ack 40 ------- 0 5.0 0.0 19 52
- 0.41952 0 2 tcp 1040 ------- 0 0.0 5.0 27 42
r 0.42024 4 1 ack 40 ------- 0 5.0 0.0 18 49
+ 0.42024 1 0 ack 40 ------- 0 5.0 0.0 18 49
- 0.42024 1 0 ack 40 ------- 0 5.0 0.0 18 49
r 0.4212 0 2 tcp 1040 ------- 0 0.0 5.0 25 40
+ 0.4212 2 3 tcp 1040 ------- 0 0.0 5.0 25 40
- 0.4212 2 3 tcp 1040 ------- 0 0.0 5.0 25 40
r 0.42224 1 0 ack 40 ------- 0 5.0 0.0 17 48
+ 0.42224 0 2 tcp 1040 ------- 0 0.0 5.0 35 56
+ 0.42224 0 2 tcp 1040 ------- 0 0.0 5.0 36 57
r 0.42288 2 3 tcp 1040 ------- 0 0.0 5.0 23 38
+ 0.42288 3 5 tcp 1040 ------- 0 0.0 5.0 23 38
- 0.42288 3 5 tcp 1040 ------- 0 0.0 5.0 23 38
r 0.42456 3 5 tcp 1040 ------- 0 0.0 5.0 21 35
+ 0.42456 5 4 ack 40 ------- 0 5.0 0.0 21 58
- 0.42456 5 4 ack 40 ------- 0 5.0 0.0 21 58
r 0.42656 5 4 ack 40 ------- 0 5.0 0.0 20 55
+ 0.42656 4 1 ack 40 ------- 0 5.0 0.0 20 55
- 0.42656 4 1 ack 40 ------- 0 5.0 0.0 20 55
- 0.42784 0 2 tcp 1040 ------- 0 0.0 5.0 28 43
r 0.42856 4 1 ack 40 ------- 0 5.0 0.0 19 52
+ 0.42856 1 0 ack 40 ------- 0 5.0 0.0 19 52
- 0.42856 1 0 ack 40 ------- 0 5.0 0.0 19 52
r 0.42952 0 2 tcp 1040 ------- 0 0.0 5.0 26 41
+ 0.42952 2 3 tcp 1040 ------- 0 0.0 5.0 26 41
- 0.42952 2 3 tcp 1040 ------- 0 0.0 5.0 26 41
r 0.43056 1 0 ack 40 ------- 0 5.0 0.0 18 49
+ 0.43056 0 2 tcp 1040 ------- 0 0.0 5.0 37 59
+ 0.43056 0 2 tcp 1040 ------- 0 0.0 5.0 38 60
r 0.4312 2 3 tcp 1040 ------- 0 0.0 5.0 24 39
+ 0.4312 3 5 tcp 1040 ------- 0 0.0 5.0 24 39
- 0.4312 3 5 tcp 1040 ------- 0 0.0 5.0 24 39
r 0.43288 3 5 tcp 1040 ------- 0 0.0 5.0 22 36
+ 0.43288 5 4 ack 40 ------- 0 5.0 0.0 22 61
- 0.43288 5 4 ack 40 ------- 0 5.0 0.0 22 61
r 0.43488 5 4 ack 40 ------- 0 5.0 0.0 21 58
+ 0.43488 4 1 ack 40 ------- 0 5.0 0.0 21 58
- 0.43488 4 1 ack 40 ------- 0 5.0 0.0 21 58
- 0.43616 0 2 tcp 1040 ------- 0 0.0 5.0 29 45
r 0.43688 4 1 ack 40 ------- 0 5.0 0.0 20 55
+ 0.43688 1 0 ack 40 ------- 0 5.0 0.0 20 55
- 0.43688 1 0 ack 40 ------- 0 5.0 0.0 20 55
r 0.43784 0 2 tcp 1040 ------- 0 0.0 5.0 27 42
+ 0.43784 2 3 tcp 1040 ------- 0 0.0 5.0 27 42
- 0.43784 2 3 tcp 1040 ------- 0 0.0 5.0 27 42
r 0.43888 1 0 ack 40 ------- 0 5.0 0.0 19 52
+ 0.43888 0 2 tcp 1040 ------- 0 0.0 5.0 39 62
r 0.43952 2 3 tcp 1040 ------- 0 0.0 5.0 25 40
+ 0.43952 3 5 tcp 1040 ------- 0 0.0 5.0 25 40
- 0.43952 3 5 tcp 1040 ------- 0 0.0 5.0 25 40
r 0.4412 3 5 tcp 1040 ------- 0 0.0 5.0 23 38
+ 0.4412 5 4 ack 40 ------- 0 5.0 0.0 23 63
- 0.4412 5 4 ack 40 ------- 0 5.0 0.0 23 63
r 0.4432 5 4 ack 40 ------- 0 5.0 0.0 22 61
+ 0.4432 4 1 ack 40 ------- 0 5.0 0.0 22 61
- 0.4432 4 1 ack 40 ------- 0 5.0 0.0 22 61
- 0.44448 0 2 tcp 1040 ------- 0 0.0 5.0 30 46
r 0.4452 4 1 ack 40 ------- 0 5.0 0.0 21 58
+ 0.4452 1 0 ack 40 ------- 0 5.0 0.0 21 58
- 0.4452 1 0 ack 40 ------- 0 5.0 0.0 21 58
r 0.44616 0 2 tcp 1040 ------- 0 0.0 5.0 28 43
+ 0.44616 2 3 tcp 1040 ------- 0 0.0 5.0 28 43
- 0.44616 2 3 tcp 1040 ------- 0 0.0 5.0 28 43
r 0.4472 1 0 ack 40 ------- 0 5.0 0.0 20 55
+ 0.4472 0 2 tcp 1040 ------- 0 0.0 5.0 40 64
r 0.44784 2 3 tcp 1040 ------- 0 0.0 5.0 26 41
+ 0.44784 3 5 tcp 1040 ------- 0 0.0 5.0 26 41
- 0.44784 3 5 tcp 1040 ------- 0 0.0 5.0 26 41
r 0.44952 3 5 tcp 1040 ------- 0 0.0 5.0 24 39
+ 0.44952 5 4 ack 40 ------- 0 5.0 0.0 24 65
- 0.44952 5 4 ack 40 ------- 0 5.0 0.0 24 65
r 0.45152 5 4 ack 40 ------- 0 5.0 0.0 23 63
+ 0.45152 4 1 ack 40 ------- 0 5.0 0.0 23 63
- 0.45152 4 1 ack 40 ------- 0 5.0 0.0 23 63
- 0.4528 0 2 tcp 1040 ------- 0 0.0 5.0 31 50
r 0.45352 4 1 ack 40 ------- 0 5.0 0.0 22 61
+ 0.45352 1 0 ack 40 ------- 0 5.0 0.0 22 61
- 0.45352 1 0 ack 40 ------- 0 5.0 0.0 22 61
r 0.45448 0 2 tcp 1040 ------- 0 0.0 5.0 29 45
+ 0.45448 2 3 tcp 1040 ------- 0 0.0 5.0 29 45
- 0.45448 2 3 tcp 1040 ------- 0 0.0 5.0 29 45
r 0.45552 1 0 ack 40 ------- 0 5.0 0.0 21 58
+ 0.45552 0 2 tcp 1040 ------- 0 0.0 5.0 41 66
r 0.45616 2 3 tcp 1040 ------- 0 0.0 5.0 27 42
+ 0.45616 3 5 tcp 1040 ------- 0 0.0 5.0 27 42
- 0.45616 3 5 tcp 1040 ------- 0 0.0 5.0 27 42
r 0.45784 3 5 tcp 1040 ------- 0 0.0 5.0 25 40
+ 0.45784 5 4 ack 40 ------- 0 5.0 0.0 25 67
- 0.45784 5 4 ack 40 ------- 0 5.0 0.0 25 67
r 0.45984 5 4 ack 40 ------- 0 5.0 0.0 24 65
+ 0.45984 4 1 ack 40 ------- 0 5.0 0.0 24 65
- 0.45984 4 1 ack 40 ------- 0 5.0 0.0 24 65
- 0.46112 0 2 tcp 1040 ------- 0 0.0 5.0 32 51
r 0.46184 4 1 ack 40 ------- 0 5.0 0.0 23 63
+ 0.46184 1 0 ack 40 ------- 0 5.0 0.0 23 63
- 0.46184 1 0 ack 40 ------- 0 5.0 0.0 23 63
r 0.4628 0 2 tcp 1040 ------- 0 0.0 5.0 30 46
+ 0.4628 2 3 tcp 1040 ------- 0 0.0 5.0 30 46
- 0.4628 2 3 tcp 1040 ------- 0 0.0 5.0 30 46
r 0.46384 1 0 ack 40 ------- 0 5.0 0.0 22 61
+ 0.46384 0 2 tcp 1040 ------- 0 0.0 5.0 42 68
r 0.46448 2 3 tcp 1040 ------- 0 0.0 5.0 28 43
+ 0.46448 3 5 tcp 1040 ------- 0 0.0 5.0 28 43
- 0.46448 3 5 tcp 1040 ------- 0 0.0 5.0 28 43
r 0.46616 3 5 tcp 1040 ------- 0 0.0 5.0 26 41
+ 0.46616 5 4 ack 40 ------- 0 5.0 0.0 26 69
- 0.46616 5 4 ack 40 ------- 0 5.0 0.0 26 69
r 0.46816 5 4 ack 40 ------- 0 5.0 0.0 25 67
+ 0.46816 4 1 ack 40 ------- 0 5.0 0.0 25 67
- 0.46816 4 1 ack 40 ------- 0 5.0 0.0 25 67
- 0.46944 0 2 tcp 1040 ------- 0 0.0 5.0 33 53
r 0.47016 4 1 ack 40 ------- 0 5.0 0.0 24 65
+ 0.47016 1 0 ack 40 ------- 0 5.0 0.0 24 65
- 0.47016 1 0 ack 40 ------- 0 5.0 0.0 24 65
r 0.47112 0 2 tcp 1040 ------- 0 0.0 5.0 31 50
+ 0.47112 2 3 tcp 1040 ------- 0 0.0 5.0 31 50
- 0.47112 2 3 tcp 1040 ------- 0 0.0 5.0 31 50
r 0.47216 1 0 ack 40 ------- 0 5.0 0.0 23 63
+ 0.47216 0 2 tcp 1040 ------- 0 0.0 5.0 43 70
r 0.4728 2 3 tcp 1040 ------- 0 0.0 5.0 29 45
+ 0.4728 3 5 tcp 1040 ------- 0 0.0 5.0 29 45
- 0.4728 3 5 tcp 1040 ------- 0 0.0 5.0 29 45
r 0.47448 3 5 tcp 1040 ------- 0 0.0 5.0 27 42
+ 0.47448 5 4 ack 40 ------- 0 5.0 0.0 27 71
- 0.47448 5 4 ack 40 ------- 0 5.0 0.0 27 71
r 0.47648 5 4 ack 40 ------- 0 5.0 0.0 26 69
+ 0.47648 4 1 ack 40 ------- 0 5.0 0.0 26 69
- 0.47648 4 1 ack 40 ------- 0 5.0 0.0 26 69
- 0.47776 0 2 tcp 1040 ------- 0 0.0 5.0 34 54
r 0.47848 4 1 ack 40 ------- 0 5.0 0.0 25 67
+ 0.47848 1 0 ack 40 ------- 0 5.0 0.0 25 67
- 0.47848 1 0 ack 40 ------- 0 5.0 0.0 25 67
r 0.47944 0 2 tcp 1040 ------- 0 0.0 5.0 32 51
+ 0.47944 2 3 tcp 1040 ------- 0 0.0 5.0 32 51
- 0.47944 2 3 tcp 1040 ------- 0 0.0 5.0 32 51
r 0.48048 1 0 ack 40 ------- 0 5.0 0.0 24 65
+ 0.48048 0 2 tcp 1040 ------- 0 0.0 5.0 44 72
r 0.48112 2 3 tcp 1040 ------- 0 0.0 5.0 30 46
+ 0.48112 3 5 tcp 1040 ------- 0 0.0 5.0 30 46
- 0.48112 3 5 tcp 1040 ------- 0 0.0 5.0 30 46
r 0.4828 3 5 tcp 1040 ------- 0 0.0 5.0 28 43
+ 0.4828 5 4 ack 40 ------- 0 5.0 0.0 28 73
- 0.4828 5 4 ack 40 ------- 0 5.0 0.0 28 73
r 0.4848 5 4 ack 40 ------- 0 5.0 0.0 27 71
+ 0.4848 4 1 ack 40 ------- 0 5.0 0.0 27 71
- 0.4848 4 1 ack 40 ------- 0 5.0 0.0 27 71
- 0.48608 0 2 tcp 1040 ------- 0 0.0 5.0 35 56
r 0.4868 4 1 ack 40 ------- 0 5.0 0.0 26 69
+ 0.4868 1 0 ack 40 ------- 0 5.0 0.0 26 69
- 0.4868 1 0 ack 40 ------- 0 5.0 0.0 26 69
r 0.48776 0 2 tcp 1040 ------- 0 0.0 5.0 33 53
+ 0.48776 2 3 tcp 1040 ------- 0 0.0 5.0 33 53
- 0.48776 2 3 tcp 1040 ------- 0 0.0 5.0 33 53
r 0.4888 1 0 ack 40 ------- 0 5.0 0.0 25 67
+ 0.4888 0 2 tcp 1040 ------- 0 0.0 5.0 45 74
r 0.48944 2 3 tcp 1040 ------- 0 0.0 5.0 31 50
+ 0.48944 3 5 tcp 1040 ------- 0 0.0 5.0 31 50
- 0.48944 3 5 tcp 1040 ------- 0 0.0 5.0 31 50
r 0.49112 3 5 tcp 1040 ------- 0 0.0 5.0 29 45
+ 0.49112 5 4 ack 40 ------- 0 5.0 0.0 29 75
- 0.49112 5 4 ack 40 ------- 0 5.0 0.0 29 75
r 0.49312 5 4 ack 40 ------- 0 5.0 0.0 28 73
+ 0.49312 4 1 ack 40 ------- 0 5.0 0.0 28 73
- 0.49312 4 1 ack 40 ------- 0 5.0 0.0 28 73
- 0.4944 0 2 tcp 1040 ------- 0 0.0 5.0 36 57
r 0.49512 4 1 ack 40 ------- 0 5.0 0.0 27 71
+ 0.49512 1 0 ack 40 ------- 0 5.0 0.0 27 71
- 0.49512 1 0 ack 40 ------- 0 5.0 0.0 27 71
r 0.49608 0 2 tcp 1040 ------- 0 0.0 5.0 34 54
+ 0.49608 2 3 tcp 1040 ------- 0 0.0 5.0 34 54
- 0.49608 2 3 tcp 1040 ------- 0 0.0 5.0 34 54
r 0.49712 1 0 ack 40 ------- 0 5.0 0.0 26 69
+ 0.49712 0 2 tcp 1040 ------- 0 0.0 5.0 46 76
r 0.49776 2 3 tcp 1040 ------- 0 0.0 5.0 32 51
+ 0.49776 3 5 tcp 1040 ------- 0 0.0 5.0 32 51
- 0.49776 3 5 tcp 1040 ------- 0 0.0 5.0 32 51
r 0.49944 3 5 tcp 1040 ------- 0 0.0 5.0 30 46
+ 0.49944 5 4 ack 40 ------- 0 5.0 0.0 30 77
- 0.49944 5 4 ack 40 ------- 0 5.0 0.0 30 77
r 0.50144 5 4 ack 40 ------- 0 5.0 0.0 29 75
+ 0.50144 4 1 ack 40 ------- 0 5.0 0.0 29 75
- 0.50144 4 1 ack 40 ------- 0 5.0 0.0 29 75
- 0.50272 0 2 tcp 1040 ------- 0 0.0 5.0 37 59
r 0.50344 4 1 ack 40 ------- 0 5.0 0.0 28 73
+ 0.50344 1 0 ack 40 ------- 0 5.0 0.0 28 73
- 0.50344 1 0 ack 40 ------- 0 5.0 0.0 28 73
r 0.5044 0 2 tcp 1040 ------- 0 0.0 5.0 35 56
+ 0.5044 2 3 tcp 1040 ------- 0 0.0 5.0 35 56
- 0.5044 2 3 tcp 1040 ------- 0 0.0 5.0 35 56
r 0.50544 1 0 ack 40 ------- 0 5.0 0.0 27 71
+ 0.50544 0 2 tcp 1040 ------- 0 0.0 5.0 47 78
r 0.50608 2 3 tcp 1040 ------- 0 0.0 5.0 33 53
+ 0.50608 3 5 tcp 1040 ------- 0 0.0 5.0 33 53
- 0.50608 3 5 tcp 1040 ------- 0 0.0 5.0 33 53
r 0.50776 3 5 tcp 1040 ------- 0 0.0 5.0 31 50
+ 0.50776 5 4 ack 40 ------- 0 5.0 0.0 31 79
- 0.50776 5 4 ack 40 ------- 0 5.0 0.0 31 79
r 0.50976 5 4 ack 40 ------- 0 5.0 0.0 30 77
+ 0.50976 4 1 ack 40 ------- 0 5.0 0.0 30 77
- 0.50976 4 1 ack 40 ------- 0 5.0 0.0 30 77
- 0.51104 0 2 tcp 1040 ------- 0 0.0 5.0 38 60
r 0.51176 4 1 ack 40 ------- 0 5.0 0.0 29 75
+ 0.51176 1 0 ack 40 ------- 0 5.0 0.0 29 75
- 0.51176 1 0 ack 40 ------- 0 5.0 0.0 29 75
r 0.51272 0 2 tcp 1040 ------- 0 0.0 5.0 36 57
+ 0.51272 2 3 tcp 1040 ------- 0 0.0 5.0 36 57
- 0.51272 2 3 tcp 1040 ------- 0 0.0 5.0 36 57
r 0.51376 1 0 ack 40 ------- 0 5.0 0.0 28 73
+ 0.51376 0 2 tcp 1040 ------- 0 0.0 5.0 48 80
r 0.5144 2 3 tcp 1040 ------- 0 0.0 5.0 34 54
+ 0.5144 3 5 tcp 1040 ------- 0 0.0 5.0 34 54
- 0.5144 3 5 tcp 1040 ------- 0 0.0 5.0 34 54
r 0.51608 3 5 tcp 1040 ------- 0 0.0 5.0 32 51
+ 0.51608 5 4 ack 40 ------- 0 5.0 0.0 32 81
- 0.51608 5 4 ack 40 ------- 0 5.0 0.0 32 81
r 0.51808 5 4 ack 40 ------- 0 5.0 0.0 31 79
+ 0.51808 4 1 ack 40 ------- 0 5.0 0.0 31 79
- 0.51808 4 1 ack 40 ------- 0 5.0 0.0 31 79
- 0.51936 0 2 tcp 1040 ------- 0 0.0 5.0 39 62
r 0.52008 4 1 ack 40 ------- 0 5.0 0.0 30 77
+ 0.52008 1 0 ack 40 ------- 0 5.0 0.0 30 77
- 0.52008 1 0 ack 40 ------- 0 5.0 0.0 30 77
r 0.52104 0 2 tcp 1040 ------- 0 0.0 5.0 37 59
+ 0.52104 2 3 tcp 1040 ------- 0 0.0 5.0 37 59
- 0.52104 2 3 tcp 1040 ------- 0 0.0 5.0 37 59
r 0.52208 1 0 ack 40 ------- 0 5.0 0.0 29 75
+ 0.52208 0 2 tcp 1040 ------- 0 0.0 5.0 49 82
r 0.52272 2 3 tcp 1040 ------- 0 0.0 5.0 35 56
+ 0.52272 3 5 tcp 1040 ------- 0 0.0 5.0 35 56
- 0.52272 3 5 tcp 1040 ------- 0 0.0 5.0 35 56
r 0.5244 3 5 tcp 1040 ------- 0 0.0 5.0 33 53
+ 0.5244 5 4 ack 40 ------- 0 5.0 0.0 33 83
- 0.5244 5 4 ack 40 ------- 0 5.0 0.0 33 83
r 0.5264 5 4 ack 40 ------- 0 5.0 0.0 32 81
+ 0.5264 4 1 ack 40 ------- 0 5.0 0.0 32 81
- 0.5264 4 1 ack 40 ------- 0 5.0 0.0 32 81
- 0.52768 0 2 tcp 1040 ------- 0 0.0 5.0 40 64
r 0.5284 4 1 ack 40 ------- 0 5.0 0.0 31 79
+ 0.5284 1 0 ack 40 ------- 0 5.0 0.0 31 79
- 0.5284 1 0 ack 40 ------- 0 5.0 0.0 31 79
r 0.52936 0 2 tcp 1040 ------- 0 0.0 5.0 38 60
+ 0.52936 2 3 tcp 1040 ------- 0 0.0 5.0 38 60
- 0.52936 2 3 tcp 1040 ------- 0 0.0 5.0 38 60
r 0.5304 1 0 ack 40 ------- 0 5.0 0.0 30 77
+ 0.5304 0 2 tcp 1040 ------- 0 0.0 5.0 50 84
r 0.53104 2 3 tcp 1040 ------- 0 0.0 5.0 36 57
+ 0.53104 3 5 tcp 1040 ------- 0 0.0 5.0 36 57
- 0.53104 3 5 tcp 1040 ------- 0 0.0 5.0 36 57
r 0.53272 3 5 tcp 1040 ------- 0 0.0 5.0 34 54
+ 0.53272 5 4 ack 40 ------- 0 5.0 0.0 34 85
- 0.53272 5 4 ack 40 ------- 0 5.0 0.0 34 85
r 0.53472 5 4 ack 40 ------- 0 5.0 0.0 33 83
+ 0.53472 4 1 ack 40 ------- 0 5.0 0.0 33 83
- 0.53472 4 1 ack 40 ------- 0 5.0 0.0 33 83
- 0.536 0 2 tcp 1040 ------- 0 0.0 5.0 41 66
r 0.53672 4 1 ack 40 ------- 0 5.0 0.0 32 81
+ 0.53672 1 0 ack 40 ------- 0 5.0 0.0 32 81
- 0.53672 1 0 ack 40 ------- 0 5.0 0.0 32 81
r 0.53768 0 2 tcp 1040 ------- 0 0.0 5.0 39 62
+ 0.53768 2 3 tcp 1040 ------- 0 0.0 5.0 39 62