+ 0.5 0 2 cbr 210 ------- 0 0.1 1073741824.0 0 0
- 0.5 0 2 cbr 210 ------- 0 0.1 1073741824.0 0 0
+ 0.5 1 2 cbr 210 ------- 0 1.1 1073741825.0 0 1
- 0.5 1 2 cbr 210 ------- 0 1.1 1073741825.0 0 1
+ 0.50375 0 2 cbr 210 ------- 0 0.1 1073741824.0 1 2
- 0.50375 0 2 cbr 210 ------- 0 0.1 1073741824.0 1 2
+ 0.50375 1 2 cbr 210 ------- 0 1.1 1073741825.0 1 3
- 0.50375 1 2 cbr 210 ------- 0 1.1 1073741825.0 1 3
+ 0.5075 0 2 cbr 210 ------- 0 0.1 1073741824.0 2 4
- 0.5075 0 2 cbr 210 ------- 0 0.1 1073741824.0 2 4
+ 0.5075 1 2 cbr 210 ------- 0 1.1 1073741825.0 2 5
- 0.5075 1 2 cbr 210 ------- 0 1.1 1073741825.0 2 5
r 0.51112 0 2 cbr 210 ------- 0 0.1 1073741824.0 0 0
+ 0.51112 2 1 cbr 210 ------- 0 0.1 1073741824.0 0 0
- 0.51112 2 1 cbr 210 ------- 0 0.1 1073741824.0 0 0
+ 0.51112 2 3 cbr 210 ------- 0 0.1 1073741824.0 0 0
- 0.51112 2 3 cbr 210 ------- 0 0.1 1073741824.0 0 0
r 0.51112 1 2 cbr 210 ------- 0 1.1 1073741825.0 0 1
+ 0.51112 2 3 cbr 210 ------- 0 1.1 1073741825.0 0 1
+ 0.51112 2 0 cbr 210 ------- 0 1.1 1073741825.0 0 1
- 0.51112 2 0 cbr 210 ------- 0 1.1 1073741825.0 0 1
+ 0.51125 0 2 cbr 210 ------- 0 0.1 1073741824.0 3 6
- 0.51125 0 2 cbr 210 ------- 0 0.1 1073741824.0 3 6
+ 0.51125 1 2 cbr 210 ------- 0 1.1 1073741825.0 3 7
- 0.51125 1 2 cbr 210 ------- 0 1.1 1073741825.0 3 7
- 0.51224 2 3 cbr 210 ------- 0 1.1 1073741825.0 0 1
r 0.51487 0 2 cbr 210 ------- 0 0.1 1073741824.0 1 2
+ 0.51487 2 1 cbr 210 ------- 0 0.1 1073741824.0 1 2
- 0.51487 2 1 cbr 210 ------- 0 0.1 1073741824.0 1 2
+ 0.51487 2 3 cbr 210 ------- 0 0.1 1073741824.0 1 2
- 0.51487 2 3 cbr 210 ------- 0 0.1 1073741824.0 1 2
r 0.51487 1 2 cbr 210 ------- 0 1.1 1073741825.0 1 3
+ 0.51487 2 3 cbr 210 ------- 0 1.1 1073741825.0 1 3
+ 0.51487 2 0 cbr 210 ------- 0 1.1 1073741825.0 1 3
- 0.51487 2 0 cbr 210 ------- 0 1.1 1073741825.0 1 3
+ 0.515 0 2 cbr 210 ------- 0 0.1 1073741824.0 4 8
- 0.515 0 2 cbr 210 ------- 0 0.1 1073741824.0 4 8
+ 0.515 1 2 cbr 210 ------- 0 1.1 1073741825.0 4 9
- 0.515 1 2 cbr 210 ------- 0 1.1 1073741825.0 4 9
- 0.51599 2 3 cbr 210 ------- 0 1.1 1073741825.0 1 3
r 0.51862 0 2 cbr 210 ------- 0 0.1 1073741824.0 2 4
+ 0.51862 2 1 cbr 210 ------- 0 0.1 1073741824.0 2 4
- 0.51862 2 1 cbr 210 ------- 0 0.1 1073741824.0 2 4
+ 0.51862 2 3 cbr 210 ------- 0 0.1 1073741824.0 2 4
- 0.51862 2 3 cbr 210 ------- 0 0.1 1073741824.0 2 4
r 0.51862 1 2 cbr 210 ------- 0 1.1 1073741825.0 2 5
+ 0.51862 2 3 cbr 210 ------- 0 1.1 1073741825.0 2 5
+ 0.51862 2 0 cbr 210 ------- 0 1.1 1073741825.0 2 5
- 0.51862 2 0 cbr 210 ------- 0 1.1 1073741825.0 2 5
+ 0.51875 0 2 cbr 210 ------- 0 0.1 1073741824.0 5 10
- 0.51875 0 2 cbr 210 ------- 0 0.1 1073741824.0 5 10
+ 0.51875 1 2 cbr 210 ------- 0 1.1 1073741825.0 5 11
- 0.51875 1 2 cbr 210 ------- 0 1.1 1073741825.0 5 11
- 0.51974 2 3 cbr 210 ------- 0 1.1 1073741825.0 2 5
r 0.52224 2 1 cbr 210 ------- 0 0.1 1073741824.0 0 0
+ 0.52224 1 2 prune 80 ------- 30 1.0 2.0 -1 12
- 0.52224 1 2 prune 80 ------- 30 1.0 2.0 -1 12
r 0.52224 2 3 cbr 210 ------- 0 0.1 1073741824.0 0 0
+ 0.52224 3 4 cbr 210 ------- 0 0.1 1073741824.0 0 0
- 0.52224 3 4 cbr 210 ------- 0 0.1 1073741824.0 0 0
+ 0.52224 3 7 cbr 210 ------- 0 0.1 1073741824.0 0 0
- 0.52224 3 7 cbr 210 ------- 0 0.1 1073741824.0 0 0
r 0.52224 2 0 cbr 210 ------- 0 1.1 1073741825.0 0 1
+ 0.52224 0 2 prune 80 ------- 30 0.0 2.0 -1 13
- 0.52224 0 2 prune 80 ------- 30 0.0 2.0 -1 13
r 0.52237 0 2 cbr 210 ------- 0 0.1 1073741824.0 3 6
+ 0.52237 2 1 cbr 210 ------- 0 0.1 1073741824.0 3 6
- 0.52237 2 1 cbr 210 ------- 0 0.1 1073741824.0 3 6
+ 0.52237 2 3 cbr 210 ------- 0 0.1 1073741824.0 3 6
- 0.52237 2 3 cbr 210 ------- 0 0.1 1073741824.0 3 6
r 0.52237 1 2 cbr 210 ------- 0 1.1 1073741825.0 3 7
+ 0.52237 2 3 cbr 210 ------- 0 1.1 1073741825.0 3 7
+ 0.52237 2 0 cbr 210 ------- 0 1.1 1073741825.0 3 7
- 0.52237 2 0 cbr 210 ------- 0 1.1 1073741825.0 3 7
+ 0.5225 0 2 cbr 210 ------- 0 0.1 1073741824.0 6 14
+ 0.5225 1 2 cbr 210 ------- 0 1.1 1073741825.0 6 15
- 0.522667 1 2 cbr 210 ------- 0 1.1 1073741825.0 6 15
- 0.522667 0 2 cbr 210 ------- 0 0.1 1073741824.0 6 14
r 0.52336 2 3 cbr 210 ------- 0 1.1 1073741825.0 0 1
+ 0.52336 3 4 cbr 210 ------- 0 1.1 1073741825.0 0 1
+ 0.52336 3 7 cbr 210 ------- 0 1.1 1073741825.0 0 1
- 0.52336 3 4 cbr 210 ------- 0 1.1 1073741825.0 0 1
- 0.52336 3 7 cbr 210 ------- 0 1.1 1073741825.0 0 1
- 0.52349 2 3 cbr 210 ------- 0 1.1 1073741825.0 3 7
r 0.52599 2 1 cbr 210 ------- 0 0.1 1073741824.0 1 2
+ 0.52599 1 2 prune 80 ------- 30 1.0 2.0 -1 16
- 0.52599 1 2 prune 80 ------- 30 1.0 2.0 -1 16
r 0.52599 2 3 cbr 210 ------- 0 0.1 1073741824.0 1 2
+ 0.52599 3 4 cbr 210 ------- 0 0.1 1073741824.0 1 2
- 0.52599 3 4 cbr 210 ------- 0 0.1 1073741824.0 1 2
+ 0.52599 3 7 cbr 210 ------- 0 0.1 1073741824.0 1 2
- 0.52599 3 7 cbr 210 ------- 0 0.1 1073741824.0 1 2
r 0.52599 2 0 cbr 210 ------- 0 1.1 1073741825.0 1 3
+ 0.52599 0 2 prune 80 ------- 30 0.0 2.0 -1 17
- 0.52599 0 2 prune 80 ------- 30 0.0 2.0 -1 17
r 0.52612 0 2 cbr 210 ------- 0 0.1 1073741824.0 4 8
+ 0.52612 2 1 cbr 210 ------- 0 0.1 1073741824.0 4 8
- 0.52612 2 1 cbr 210 ------- 0 0.1 1073741824.0 4 8
+ 0.52612 2 3 cbr 210 ------- 0 0.1 1073741824.0 4 8
- 0.52612 2 3 cbr 210 ------- 0 0.1 1073741824.0 4 8
r 0.52612 1 2 cbr 210 ------- 0 1.1 1073741825.0 4 9
+ 0.52612 2 3 cbr 210 ------- 0 1.1 1073741825.0 4 9
+ 0.52612 2 0 cbr 210 ------- 0 1.1 1073741825.0 4 9
- 0.52612 2 0 cbr 210 ------- 0 1.1 1073741825.0 4 9
+ 0.52625 0 2 cbr 210 ------- 0 0.1 1073741824.0 7 18
+ 0.52625 1 2 cbr 210 ------- 0 1.1 1073741825.0 7 19
- 0.526417 1 2 cbr 210 ------- 0 1.1 1073741825.0 7 19
- 0.526417 0 2 cbr 210 ------- 0 0.1 1073741824.0 7 18
r 0.52711 2 3 cbr 210 ------- 0 1.1 1073741825.0 1 3
+ 0.52711 3 4 cbr 210 ------- 0 1.1 1073741825.0 1 3
+ 0.52711 3 7 cbr 210 ------- 0 1.1 1073741825.0 1 3
- 0.52711 3 4 cbr 210 ------- 0 1.1 1073741825.0 1 3
- 0.52711 3 7 cbr 210 ------- 0 1.1 1073741825.0 1 3
- 0.52724 2 3 cbr 210 ------- 0 1.1 1073741825.0 4 9
r 0.52974 2 1 cbr 210 ------- 0 0.1 1073741824.0 2 4
+ 0.52974 1 2 prune 80 ------- 30 1.0 2.0 -1 20
- 0.52974 1 2 prune 80 ------- 30 1.0 2.0 -1 20
r 0.52974 2 3 cbr 210 ------- 0 0.1 1073741824.0 2 4
+ 0.52974 3 4 cbr 210 ------- 0 0.1 1073741824.0 2 4
- 0.52974 3 4 cbr 210 ------- 0 0.1 1073741824.0 2 4
+ 0.52974 3 7 cbr 210 ------- 0 0.1 1073741824.0 2 4
- 0.52974 3 7 cbr 210 ------- 0 0.1 1073741824.0 2 4
r 0.52974 2 0 cbr 210 ------- 0 1.1 1073741825.0 2 5
+ 0.52974 0 2 prune 80 ------- 30 0.0 2.0 -1 21
- 0.52974 0 2 prune 80 ------- 30 0.0 2.0 -1 21
r 0.52987 0 2 cbr 210 ------- 0 0.1 1073741824.0 5 10
+ 0.52987 2 1 cbr 210 ------- 0 0.1 1073741824.0 5 10
- 0.52987 2 1 cbr 210 ------- 0 0.1 1073741824.0 5 10
+ 0.52987 2 3 cbr 210 ------- 0 0.1 1073741824.0 5 10
- 0.52987 2 3 cbr 210 ------- 0 0.1 1073741824.0 5 10
r 0.52987 1 2 cbr 210 ------- 0 1.1 1073741825.0 5 11
+ 0.52987 2 3 cbr 210 ------- 0 1.1 1073741825.0 5 11
+ 0.52987 2 0 cbr 210 ------- 0 1.1 1073741825.0 5 11
- 0.52987 2 0 cbr 210 ------- 0 1.1 1073741825.0 5 11
+ 0.53 0 2 cbr 210 ------- 0 0.1 1073741824.0 8 22
+ 0.53 1 2 cbr 210 ------- 0 1.1 1073741825.0 8 23
- 0.530167 1 2 cbr 210 ------- 0 1.1 1073741825.0 8 23
- 0.530167 0 2 cbr 210 ------- 0 0.1 1073741824.0 8 22
r 0.53086 2 3 cbr 210 ------- 0 1.1 1073741825.0 2 5
+ 0.53086 3 4 cbr 210 ------- 0 1.1 1073741825.0 2 5
+ 0.53086 3 7 cbr 210 ------- 0 1.1 1073741825.0 2 5
- 0.53086 3 4 cbr 210 ------- 0 1.1 1073741825.0 2 5
- 0.53086 3 7 cbr 210 ------- 0 1.1 1073741825.0 2 5
- 0.53099 2 3 cbr 210 ------- 0 1.1 1073741825.0 5 11
r 0.532667 1 2 prune 80 ------- 30 1.0 2.0 -1 12
r 0.532667 0 2 prune 80 ------- 30 0.0 2.0 -1 13
r 0.53336 3 4 cbr 210 ------- 0 0.1 1073741824.0 0 0
+ 0.53336 4 5 cbr 210 ------- 0 0.1 1073741824.0 0 0
- 0.53336 4 5 cbr 210 ------- 0 0.1 1073741824.0 0 0
+ 0.53336 4 6 cbr 210 ------- 0 0.1 1073741824.0 0 0
- 0.53336 4 6 cbr 210 ------- 0 0.1 1073741824.0 0 0
r 0.53336 3 7 cbr 210 ------- 0 0.1 1073741824.0 0 0
+ 0.53336 7 3 prune 80 ------- 30 7.0 3.0 -1 24
- 0.53336 7 3 prune 80 ------- 30 7.0 3.0 -1 24
r 0.53349 2 1 cbr 210 ------- 0 0.1 1073741824.0 3 6
+ 0.53349 1 2 prune 80 ------- 30 1.0 2.0 -1 25
- 0.53349 1 2 prune 80 ------- 30 1.0 2.0 -1 25
r 0.53349 2 3 cbr 210 ------- 0 0.1 1073741824.0 3 6
+ 0.53349 3 4 cbr 210 ------- 0 0.1 1073741824.0 3 6
- 0.53349 3 4 cbr 210 ------- 0 0.1 1073741824.0 3 6
+ 0.53349 3 7 cbr 210 ------- 0 0.1 1073741824.0 3 6
- 0.53349 3 7 cbr 210 ------- 0 0.1 1073741824.0 3 6
r 0.53349 2 0 cbr 210 ------- 0 1.1 1073741825.0 3 7
+ 0.53349 0 2 prune 80 ------- 30 0.0 2.0 -1 26
- 0.53349 0 2 prune 80 ------- 30 0.0 2.0 -1 26
+ 0.53375 0 2 cbr 210 ------- 0 0.1 1073741824.0 9 27
+ 0.53375 1 2 cbr 210 ------- 0 1.1 1073741825.0 9 28
r 0.533787 1 2 cbr 210 ------- 0 1.1 1073741825.0 6 15
+ 0.533787 2 3 cbr 210 ------- 0 1.1 1073741825.0 6 15
- 0.533787 2 3 cbr 210 ------- 0 1.1 1073741825.0 6 15
r 0.533787 0 2 cbr 210 ------- 0 0.1 1073741824.0 6 14
+ 0.533787 2 3 cbr 210 ------- 0 0.1 1073741824.0 6 14
- 0.533917 1 2 cbr 210 ------- 0 1.1 1073741825.0 9 28
- 0.533917 0 2 cbr 210 ------- 0 0.1 1073741824.0 9 27
r 0.53448 3 4 cbr 210 ------- 0 1.1 1073741825.0 0 1
+ 0.53448 4 5 cbr 210 ------- 0 1.1 1073741825.0 0 1
+ 0.53448 4 6 cbr 210 ------- 0 1.1 1073741825.0 0 1
r 0.53448 3 7 cbr 210 ------- 0 1.1 1073741825.0 0 1
+ 0.53448 7 3 prune 80 ------- 30 7.0 3.0 -1 29
- 0.53448 7 3 prune 80 ------- 30 7.0 3.0 -1 29
- 0.53448 4 5 cbr 210 ------- 0 1.1 1073741825.0 0 1
- 0.53448 4 6 cbr 210 ------- 0 1.1 1073741825.0 0 1
r 0.53461 2 3 cbr 210 ------- 0 1.1 1073741825.0 3 7
+ 0.53461 3 4 cbr 210 ------- 0 1.1 1073741825.0 3 7
+ 0.53461 3 7 cbr 210 ------- 0 1.1 1073741825.0 3 7
- 0.53461 3 4 cbr 210 ------- 0 1.1 1073741825.0 3 7
- 0.53461 3 7 cbr 210 ------- 0 1.1 1073741825.0 3 7
- 0.534907 2 3 cbr 210 ------- 0 0.1 1073741824.0 6 14
r 0.536417 1 2 prune 80 ------- 30 1.0 2.0 -1 16
r 0.536417 0 2 prune 80 ------- 30 0.0 2.0 -1 17
r 0.53711 3 4 cbr 210 ------- 0 0.1 1073741824.0 1 2
+ 0.53711 4 5 cbr 210 ------- 0 0.1 1073741824.0 1 2
- 0.53711 4 5 cbr 210 ------- 0 0.1 1073741824.0 1 2
+ 0.53711 4 6 cbr 210 ------- 0 0.1 1073741824.0 1 2
- 0.53711 4 6 cbr 210 ------- 0 0.1 1073741824.0 1 2
r 0.53711 3 7 cbr 210 ------- 0 0.1 1073741824.0 1 2
+ 0.53711 7 3 prune 80 ------- 30 7.0 3.0 -1 30
- 0.53711 7 3 prune 80 ------- 30 7.0 3.0 -1 30
r 0.53724 2 1 cbr 210 ------- 0 0.1 1073741824.0 4 8
+ 0.53724 1 2 prune 80 ------- 30 1.0 2.0 -1 31
- 0.53724 1 2 prune 80 ------- 30 1.0 2.0 -1 31
r 0.53724 2 3 cbr 210 ------- 0 0.1 1073741824.0 4 8
+ 0.53724 3 4 cbr 210 ------- 0 0.1 1073741824.0 4 8
- 0.53724 3 4 cbr 210 ------- 0 0.1 1073741824.0 4 8
+ 0.53724 3 7 cbr 210 ------- 0 0.1 1073741824.0 4 8
- 0.53724 3 7 cbr 210 ------- 0 0.1 1073741824.0 4 8
r 0.53724 2 0 cbr 210 ------- 0 1.1 1073741825.0 4 9
+ 0.53724 0 2 prune 80 ------- 30 0.0 2.0 -1 32
- 0.53724 0 2 prune 80 ------- 30 0.0 2.0 -1 32
+ 0.5375 0 2 cbr 210 ------- 0 0.1 1073741824.0 10 33
+ 0.5375 1 2 cbr 210 ------- 0 1.1 1073741825.0 10 34
r 0.537537 1 2 cbr 210 ------- 0 1.1 1073741825.0 7 19
+ 0.537537 2 3 cbr 210 ------- 0 1.1 1073741825.0 7 19
- 0.537537 2 3 cbr 210 ------- 0 1.1 1073741825.0 7 19
r 0.537537 0 2 cbr 210 ------- 0 0.1 1073741824.0 7 18
+ 0.537537 2 3 cbr 210 ------- 0 0.1 1073741824.0 7 18
- 0.537667 1 2 cbr 210 ------- 0 1.1 1073741825.0 10 34
- 0.537667 0 2 cbr 210 ------- 0 0.1 1073741824.0 10 33
r 0.53823 3 4 cbr 210 ------- 0 1.1 1073741825.0 1 3
+ 0.53823 4 5 cbr 210 ------- 0 1.1 1073741825.0 1 3
+ 0.53823 4 6 cbr 210 ------- 0 1.1 1073741825.0 1 3
r 0.53823 3 7 cbr 210 ------- 0 1.1 1073741825.0 1 3
+ 0.53823 7 3 prune 80 ------- 30 7.0 3.0 -1 35
- 0.53823 7 3 prune 80 ------- 30 7.0 3.0 -1 35
- 0.53823 4 5 cbr 210 ------- 0 1.1 1073741825.0 1 3
- 0.53823 4 6 cbr 210 ------- 0 1.1 1073741825.0 1 3
r 0.53836 2 3 cbr 210 ------- 0 1.1 1073741825.0 4 9
+ 0.53836 3 4 cbr 210 ------- 0 1.1 1073741825.0 4 9
+ 0.53836 3 7 cbr 210 ------- 0 1.1 1073741825.0 4 9
- 0.53836 3 4 cbr 210 ------- 0 1.1 1073741825.0 4 9
- 0.53836 3 7 cbr 210 ------- 0 1.1 1073741825.0 4 9
- 0.538657 2 3 cbr 210 ------- 0 0.1 1073741824.0 7 18
r 0.540167 1 2 prune 80 ------- 30 1.0 2.0 -1 20
r 0.540167 0 2 prune 80 ------- 30 0.0 2.0 -1 21
r 0.54086 3 4 cbr 210 ------- 0 0.1 1073741824.0 2 4
+ 0.54086 4 5 cbr 210 ------- 0 0.1 1073741824.0 2 4
- 0.54086 4 5 cbr 210 ------- 0 0.1 1073741824.0 2 4
+ 0.54086 4 6 cbr 210 ------- 0 0.1 1073741824.0 2 4
- 0.54086 4 6 cbr 210 ------- 0 0.1 1073741824.0 2 4
r 0.54086 3 7 cbr 210 ------- 0 0.1 1073741824.0 2 4
+ 0.54086 7 3 prune 80 ------- 30 7.0 3.0 -1 36
- 0.54086 7 3 prune 80 ------- 30 7.0 3.0 -1 36
r 0.54099 2 1 cbr 210 ------- 0 0.1 1073741824.0 5 10
+ 0.54099 1 2 prune 80 ------- 30 1.0 2.0 -1 37
- 0.54099 1 2 prune 80 ------- 30 1.0 2.0 -1 37
r 0.54099 2 3 cbr 210 ------- 0 0.1 1073741824.0 5 10
+ 0.54099 3 4 cbr 210 ------- 0 0.1 1073741824.0 5 10
- 0.54099 3 4 cbr 210 ------- 0 0.1 1073741824.0 5 10
+ 0.54099 3 7 cbr 210 ------- 0 0.1 1073741824.0 5 10
- 0.54099 3 7 cbr 210 ------- 0 0.1 1073741824.0 5 10
r 0.54099 2 0 cbr 210 ------- 0 1.1 1073741825.0 5 11
+ 0.54099 0 2 prune 80 ------- 30 0.0 2.0 -1 38
- 0.54099 0 2 prune 80 ------- 30 0.0 2.0 -1 38
+ 0.54125 0 2 cbr 210 ------- 0 0.1 1073741824.0 11 39
+ 0.54125 1 2 cbr 210 ------- 0 1.1 1073741825.0 11 40
r 0.541287 1 2 cbr 210 ------- 0 1.1 1073741825.0 8 23
+ 0.541287 2 3 cbr 210 ------- 0 1.1 1073741825.0 8 23
- 0.541287 2 3 cbr 210 ------- 0 1.1 1073741825.0 8 23
r 0.541287 0 2 cbr 210 ------- 0 0.1 1073741824.0 8 22
+ 0.541287 2 3 cbr 210 ------- 0 0.1 1073741824.0 8 22
- 0.541417 1 2 cbr 210 ------- 0 1.1 1073741825.0 11 40
- 0.541417 0 2 cbr 210 ------- 0 0.1 1073741824.0 11 39
r 0.54198 3 4 cbr 210 ------- 0 1.1 1073741825.0 2 5
+ 0.54198 4 5 cbr 210 ------- 0 1.1 1073741825.0 2 5
+ 0.54198 4 6 cbr 210 ------- 0 1.1 1073741825.0 2 5
r 0.54198 3 7 cbr 210 ------- 0 1.1 1073741825.0 2 5
+ 0.54198 7 3 prune 80 ------- 30 7.0 3.0 -1 41
- 0.54198 7 3 prune 80 ------- 30 7.0 3.0 -1 41
- 0.54198 4 5 cbr 210 ------- 0 1.1 1073741825.0 2 5
- 0.54198 4 6 cbr 210 ------- 0 1.1 1073741825.0 2 5
r 0.54211 2 3 cbr 210 ------- 0 1.1 1073741825.0 5 11
+ 0.54211 3 4 cbr 210 ------- 0 1.1 1073741825.0 5 11
+ 0.54211 3 7 cbr 210 ------- 0 1.1 1073741825.0 5 11
- 0.54211 3 4 cbr 210 ------- 0 1.1 1073741825.0 5 11
- 0.54211 3 7 cbr 210 ------- 0 1.1 1073741825.0 5 11
- 0.542407 2 3 cbr 210 ------- 0 0.1 1073741824.0 8 22
r 0.543787 7 3 prune 80 ------- 30 7.0 3.0 -1 24
r 0.543917 1 2 prune 80 ------- 30 1.0 2.0 -1 25
r 0.543917 0 2 prune 80 ------- 30 0.0 2.0 -1 26
r 0.54448 4 5 cbr 210 ------- 0 0.1 1073741824.0 0 0
+ 0.54448 5 4 prune 80 ------- 30 5.0 4.0 -1 42
- 0.54448 5 4 prune 80 ------- 30 5.0 4.0 -1 42
r 0.54448 4 6 cbr 210 ------- 0 0.1 1073741824.0 0 0
+ 0.54448 6 4 prune 80 ------- 30 6.0 4.0 -1 43
- 0.54448 6 4 prune 80 ------- 30 6.0 4.0 -1 43
r 0.54461 3 4 cbr 210 ------- 0 0.1 1073741824.0 3 6
+ 0.54461 4 5 cbr 210 ------- 0 0.1 1073741824.0 3 6
- 0.54461 4 5 cbr 210 ------- 0 0.1 1073741824.0 3 6
+ 0.54461 4 6 cbr 210 ------- 0 0.1 1073741824.0 3 6
- 0.54461 4 6 cbr 210 ------- 0 0.1 1073741824.0 3 6
r 0.54461 3 7 cbr 210 ------- 0 0.1 1073741824.0 3 6
+ 0.54461 7 3 prune 80 ------- 30 7.0 3.0 -1 44
- 0.54461 7 3 prune 80 ------- 30 7.0 3.0 -1 44
r 0.544907 2 3 cbr 210 ------- 0 1.1 1073741825.0 6 15
+ 0.544907 3 4 cbr 210 ------- 0 1.1 1073741825.0 6 15
- 0.544907 3 4 cbr 210 ------- 0 1.1 1073741825.0 6 15
+ 0.544907 3 7 cbr 210 ------- 0 1.1 1073741825.0 6 15
- 0.544907 3 7 cbr 210 ------- 0 1.1 1073741825.0 6 15
r 0.544907 7 3 prune 80 ------- 30 7.0 3.0 -1 29
+ 0.545 0 2 cbr 210 ------- 0 0.1 1073741824.0 12 45
- 0.545 0 2 cbr 210 ------- 0 0.1 1073741824.0 12 45
+ 0.545 1 2 cbr 210 ------- 0 1.1 1073741825.0 12 46
- 0.545 1 2 cbr 210 ------- 0 1.1 1073741825.0 12 46
r 0.545037 1 2 cbr 210 ------- 0 1.1 1073741825.0 9 28
+ 0.545037 2 3 cbr 210 ------- 0 1.1 1073741825.0 9 28
- 0.545037 2 3 cbr 210 ------- 0 1.1 1073741825.0 9 28
r 0.545037 0 2 cbr 210 ------- 0 0.1 1073741824.0 9 27
+ 0.545037 2 3 cbr 210 ------- 0 0.1 1073741824.0 9 27
r 0.5456 4 5 cbr 210 ------- 0 1.1 1073741825.0 0 1
+ 0.5456 5 4 prune 80 ------- 30 5.0 4.0 -1 47
- 0.5456 5 4 prune 80 ------- 30 5.0 4.0 -1 47
r 0.5456 4 6 cbr 210 ------- 0 1.1 1073741825.0 0 1
+ 0.5456 6 4 prune 80 ------- 30 6.0 4.0 -1 48
- 0.5456 6 4 prune 80 ------- 30 6.0 4.0 -1 48
r 0.54573 3 4 cbr 210 ------- 0 1.1 1073741825.0 3 7
+ 0.54573 4 5 cbr 210 ------- 0 1.1 1073741825.0 3 7
+ 0.54573 4 6 cbr 210 ------- 0 1.1 1073741825.0 3 7
r 0.54573 3 7 cbr 210 ------- 0 1.1 1073741825.0 3 7
+ 0.54573 7 3 prune 80 ------- 30 7.0 3.0 -1 49
- 0.54573 7 3 prune 80 ------- 30 7.0 3.0 -1 49
- 0.54573 4 5 cbr 210 ------- 0 1.1 1073741825.0 3 7
- 0.54573 4 6 cbr 210 ------- 0 1.1 1073741825.0 3 7
r 0.546027 2 3 cbr 210 ------- 0 0.1 1073741824.0 6 14
+ 0.546027 3 4 cbr 210 ------- 0 0.1 1073741824.0 6 14
- 0.546027 3 4 cbr 210 ------- 0 0.1 1073741824.0 6 14
- 0.546157 2 3 cbr 210 ------- 0 0.1 1073741824.0 9 27
r 0.547537 7 3 prune 80 ------- 30 7.0 3.0 -1 30
r 0.547667 1 2 prune 80 ------- 30 1.0 2.0 -1 31
r 0.547667 0 2 prune 80 ------- 30 0.0 2.0 -1 32
r 0.54823 4 5 cbr 210 ------- 0 0.1 1073741824.0 1 2
+ 0.54823 5 4 prune 80 ------- 30 5.0 4.0 -1 50
- 0.54823 5 4 prune 80 ------- 30 5.0 4.0 -1 50
r 0.54823 4 6 cbr 210 ------- 0 0.1 1073741824.0 1 2
+ 0.54823 6 4 prune 80 ------- 30 6.0 4.0 -1 51
- 0.54823 6 4 prune 80 ------- 30 6.0 4.0 -1 51
r 0.54836 3 4 cbr 210 ------- 0 0.1 1073741824.0 4 8
+ 0.54836 4 5 cbr 210 ------- 0 0.1 1073741824.0 4 8
- 0.54836 4 5 cbr 210 ------- 0 0.1 1073741824.0 4 8
+ 0.54836 4 6 cbr 210 ------- 0 0.1 1073741824.0 4 8
- 0.54836 4 6 cbr 210 ------- 0 0.1 1073741824.0 4 8
r 0.54836 3 7 cbr 210 ------- 0 0.1 1073741824.0 4 8
+ 0.54836 7 3 prune 80 ------- 30 7.0 3.0 -1 52
- 0.54836 7 3 prune 80 ------- 30 7.0 3.0 -1 52
r 0.548657 2 3 cbr 210 ------- 0 1.1 1073741825.0 7 19
+ 0.548657 3 4 cbr 210 ------- 0 1.1 1073741825.0 7 19
- 0.548657 3 4 cbr 210 ------- 0 1.1 1073741825.0 7 19
r 0.548657 7 3 prune 80 ------- 30 7.0 3.0 -1 35
+ 0.54875 0 2 cbr 210 ------- 0 0.1 1073741824.0 13 53
- 0.54875 0 2 cbr 210 ------- 0 0.1 1073741824.0 13 53
+ 0.54875 1 2 cbr 210 ------- 0 1.1 1073741825.0 13 54
- 0.54875 1 2 cbr 210 ------- 0 1.1 1073741825.0 13 54
r 0.548787 1 2 cbr 210 ------- 0 1.1 1073741825.0 10 34
+ 0.548787 2 3 cbr 210 ------- 0 1.1 1073741825.0 10 34
- 0.548787 2 3 cbr 210 ------- 0 1.1 1073741825.0 10 34
r 0.548787 0 2 cbr 210 ------- 0 0.1 1073741824.0 10 33
+ 0.548787 2 3 cbr 210 ------- 0 0.1 1073741824.0 10 33
r 0.54935 4 5 cbr 210 ------- 0 1.1 1073741825.0 1 3
+ 0.54935 5 4 prune 80 ------- 30 5.0 4.0 -1 55
- 0.54935 5 4 prune 80 ------- 30 5.0 4.0 -1 55
r 0.54935 4 6 cbr 210 ------- 0 1.1 1073741825.0 1 3
+ 0.54935 6 4 prune 80 ------- 30 6.0 4.0 -1 56
- 0.54935 6 4 prune 80 ------- 30 6.0 4.0 -1 56
r 0.54948 3 4 cbr 210 ------- 0 1.1 1073741825.0 4 9
+ 0.54948 4 5 cbr 210 ------- 0 1.1 1073741825.0 4 9
+ 0.54948 4 6 cbr 210 ------- 0 1.1 1073741825.0 4 9
r 0.54948 3 7 cbr 210 ------- 0 1.1 1073741825.0 4 9
+ 0.54948 7 3 prune 80 ------- 30 7.0 3.0 -1 57
- 0.54948 7 3 prune 80 ------- 30 7.0 3.0 -1 57
- 0.54948 4 5 cbr 210 ------- 0 1.1 1073741825.0 4 9
- 0.54948 4 6 cbr 210 ------- 0 1.1 1073741825.0 4 9
r 0.549777 2 3 cbr 210 ------- 0 0.1 1073741824.0 7 18
+ 0.549777 3 4 cbr 210 ------- 0 0.1 1073741824.0 7 18
- 0.549777 3 4 cbr 210 ------- 0 0.1 1073741824.0 7 18
- 0.549907 2 3 cbr 210 ------- 0 0.1 1073741824.0 10 33
r 0.551287 7 3 prune 80 ------- 30 7.0 3.0 -1 36
r 0.551417 1 2 prune 80 ------- 30 1.0 2.0 -1 37
r 0.551417 0 2 prune 80 ------- 30 0.0 2.0 -1 38
r 0.55198 4 5 cbr 210 ------- 0 0.1 1073741824.0 2 4
+ 0.55198 5 4 prune 80 ------- 30 5.0 4.0 -1 58
- 0.55198 5 4 prune 80 ------- 30 5.0 4.0 -1 58
r 0.55198 4 6 cbr 210 ------- 0 0.1 1073741824.0 2 4
+ 0.55198 6 4 prune 80 ------- 30 6.0 4.0 -1 59
- 0.55198 6 4 prune 80 ------- 30 6.0 4.0 -1 59
r 0.55211 3 4 cbr 210 ------- 0 0.1 1073741824.0 5 10
+ 0.55211 4 5 cbr 210 ------- 0 0.1 1073741824.0 5 10
- 0.55211 4 5 cbr 210 ------- 0 0.1 1073741824.0 5 10
+ 0.55211 4 6 cbr 210 ------- 0 0.1 1073741824.0 5 10
- 0.55211 4 6 cbr 210 ------- 0 0.1 1073741824.0 5 10
r 0.55211 3 7 cbr 210 ------- 0 0.1 1073741824.0 5 10
+ 0.55211 7 3 prune 80 ------- 30 7.0 3.0 -1 60
- 0.55211 7 3 prune 80 ------- 30 7.0 3.0 -1 60
r 0.552407 2 3 cbr 210 ------- 0 1.1 1073741825.0 8 23
+ 0.552407 3 4 cbr 210 ------- 0 1.1 1073741825.0 8 23
- 0.552407 3 4 cbr 210 ------- 0 1.1 1073741825.0 8 23
r 0.552407 7 3 prune 80 ------- 30 7.0 3.0 -1 41
+ 0.5525 0 2 cbr 210 ------- 0 0.1 1073741824.0 14 61
- 0.5525 0 2 cbr 210 ------- 0 0.1 1073741824.0 14 61
+ 0.5525 1 2 cbr 210 ------- 0 1.1 1073741825.0 14 62
- 0.5525 1 2 cbr 210 ------- 0 1.1 1073741825.0 14 62
r 0.552537 1 2 cbr 210 ------- 0 1.1 1073741825.0 11 40
+ 0.552537 2 3 cbr 210 ------- 0 1.1 1073741825.0 11 40
- 0.552537 2 3 cbr 210 ------- 0 1.1 1073741825.0 11 40
r 0.552537 0 2 cbr 210 ------- 0 0.1 1073741824.0 11 39
+ 0.552537 2 3 cbr 210 ------- 0 0.1 1073741824.0 11 39
r 0.5531 4 5 cbr 210 ------- 0 1.1 1073741825.0 2 5
+ 0.5531 5 4 prune 80 ------- 30 5.0 4.0 -1 63
- 0.5531 5 4 prune 80 ------- 30 5.0 4.0 -1 63
r 0.5531 4 6 cbr 210 ------- 0 1.1 1073741825.0 2 5
+ 0.5531 6 4 prune 80 ------- 30 6.0 4.0 -1 64
- 0.5531 6 4 prune 80 ------- 30 6.0 4.0 -1 64
r 0.55323 3 4 cbr 210 ------- 0 1.1 1073741825.0 5 11
+ 0.55323 4 5 cbr 210 ------- 0 1.1 1073741825.0 5 11
+ 0.55323 4 6 cbr 210 ------- 0 1.1 1073741825.0 5 11
r 0.55323 3 7 cbr 210 ------- 0 1.1 1073741825.0 5 11
+ 0.55323 7 3 prune 80 ------- 30 7.0 3.0 -1 65
- 0.55323 7 3 prune 80 ------- 30 7.0 3.0 -1 65
- 0.55323 4 5 cbr 210 ------- 0 1.1 1073741825.0 5 11
- 0.55323 4 6 cbr 210 ------- 0 1.1 1073741825.0 5 11
r 0.553527 2 3 cbr 210 ------- 0 0.1 1073741824.0 8 22
+ 0.553527 3 4 cbr 210 ------- 0 0.1 1073741824.0 8 22
- 0.553527 3 4 cbr 210 ------- 0 0.1 1073741824.0 8 22
- 0.553657 2 3 cbr 210 ------- 0 0.1 1073741824.0 11 39
r 0.554907 5 4 prune 80 ------- 30 5.0 4.0 -1 42
r 0.554907 6 4 prune 80 ------- 30 6.0 4.0 -1 43
+ 0.554907 4 3 prune 80 ------- 30 4.0 3.0 -1 66
- 0.554907 4 3 prune 80 ------- 30 4.0 3.0 -1 66
r 0.555037 7 3 prune 80 ------- 30 7.0 3.0 -1 44
r 0.55573 4 5 cbr 210 ------- 0 0.1 1073741824.0 3 6
+ 0.55573 5 4 prune 80 ------- 30 5.0 4.0 -1 67
- 0.55573 5 4 prune 80 ------- 30 5.0 4.0 -1 67
r 0.55573 4 6 cbr 210 ------- 0 0.1 1073741824.0 3 6
+ 0.55573 6 4 prune 80 ------- 30 6.0 4.0 -1 68
- 0.55573 6 4 prune 80 ------- 30 6.0 4.0 -1 68
r 0.556027 3 4 cbr 210 ------- 0 1.1 1073741825.0 6 15
+ 0.556027 4 5 cbr 210 ------- 0 1.1 1073741825.0 6 15
- 0.556027 4 5 cbr 210 ------- 0 1.1 1073741825.0 6 15
+ 0.556027 4 6 cbr 210 ------- 0 1.1 1073741825.0 6 15
- 0.556027 4 6 cbr 210 ------- 0 1.1 1073741825.0 6 15
r 0.556027 3 7 cbr 210 ------- 0 1.1 1073741825.0 6 15
+ 0.556027 7 3 prune 80 ------- 30 7.0 3.0 -1 69
- 0.556027 7 3 prune 80 ------- 30 7.0 3.0 -1 69
r 0.556027 5 4 prune 80 ------- 30 5.0 4.0 -1 47
r 0.556027 6 4 prune 80 ------- 30 6.0 4.0 -1 48
+ 0.556027 4 3 prune 80 ------- 30 4.0 3.0 -1 70
- 0.556027 4 3 prune 80 ------- 30 4.0 3.0 -1 70
r 0.55612 0 2 cbr 210 ------- 0 0.1 1073741824.0 12 45
+ 0.55612 2 3 cbr 210 ------- 0 0.1 1073741824.0 12 45
- 0.55612 2 3 cbr 210 ------- 0 0.1 1073741824.0 12 45
r 0.55612 1 2 cbr 210 ------- 0 1.1 1073741825.0 12 46
+ 0.55612 2 3 cbr 210 ------- 0 1.1 1073741825.0 12 46
r 0.556157 2 3 cbr 210 ------- 0 1.1 1073741825.0 9 28
+ 0.556157 3 4 cbr 210 ------- 0 1.1 1073741825.0 9 28
- 0.556157 3 4 cbr 210 ------- 0 1.1 1073741825.0 9 28
r 0.556157 7 3 prune 80 ------- 30 7.0 3.0 -1 49
+ 0.55625 0 2 cbr 210 ------- 0 0.1 1073741824.0 15 71
- 0.55625 0 2 cbr 210 ------- 0 0.1 1073741824.0 15 71
+ 0.55625 1 2 cbr 210 ------- 0 1.1 1073741825.0 15 72
- 0.55625 1 2 cbr 210 ------- 0 1.1 1073741825.0 15 72
r 0.55685 4 5 cbr 210 ------- 0 1.1 1073741825.0 3 7
+ 0.55685 5 4 prune 80 ------- 30 5.0 4.0 -1 73
- 0.55685 5 4 prune 80 ------- 30 5.0 4.0 -1 73
r 0.55685 4 6 cbr 210 ------- 0 1.1 1073741825.0 3 7
+ 0.55685 6 4 prune 80 ------- 30 6.0 4.0 -1 74
- 0.55685 6 4 prune 80 ------- 30 6.0 4.0 -1 74
r 0.557147 3 4 cbr 210 ------- 0 0.1 1073741824.0 6 14
+ 0.557147 4 3 prune 80 ------- 30 4.0 3.0 -1 75
- 0.557147 4 3 prune 80 ------- 30 4.0 3.0 -1 75
- 0.55724 2 3 cbr 210 ------- 0 1.1 1073741825.0 12 46
r 0.557277 2 3 cbr 210 ------- 0 0.1 1073741824.0 9 27
+ 0.557277 3 4 cbr 210 ------- 0 0.1 1073741824.0 9 27
- 0.557277 3 4 cbr 210 ------- 0 0.1 1073741824.0 9 27
r 0.558657 5 4 prune 80 ------- 30 5.0 4.0 -1 50
r 0.558657 6 4 prune 80 ------- 30 6.0 4.0 -1 51
r 0.558787 7 3 prune 80 ------- 30 7.0 3.0 -1 52
r 0.55948 4 5 cbr 210 ------- 0 0.1 1073741824.0 4 8
+ 0.55948 5 4 prune 80 ------- 30 5.0 4.0 -1 76
- 0.55948 5 4 prune 80 ------- 30 5.0 4.0 -1 76
r 0.55948 4 6 cbr 210 ------- 0 0.1 1073741824.0 4 8
+ 0.55948 6 4 prune 80 ------- 30 6.0 4.0 -1 77
- 0.55948 6 4 prune 80 ------- 30 6.0 4.0 -1 77
r 0.559777 3 4 cbr 210 ------- 0 1.1 1073741825.0 7 19
+ 0.559777 4 3 prune 80 ------- 30 4.0 3.0 -1 78
- 0.559777 4 3 prune 80 ------- 30 4.0 3.0 -1 78
r 0.559777 5 4 prune 80 ------- 30 5.0 4.0 -1 55
r 0.559777 6 4 prune 80 ------- 30 6.0 4.0 -1 56
r 0.55987 0 2 cbr 210 ------- 0 0.1 1073741824.0 13 53
+ 0.55987 2 3 cbr 210 ------- 0 0.1 1073741824.0 13 53
- 0.55987 2 3 cbr 210 ------- 0 0.1 1073741824.0 13 53
r 0.55987 1 2 cbr 210 ------- 0 1.1 1073741825.0 13 54
+ 0.55987 2 3 cbr 210 ------- 0 1.1 1073741825.0 13 54
r 0.559907 2 3 cbr 210 ------- 0 1.1 1073741825.0 10 34
+ 0.559907 3 4 cbr 210 ------- 0 1.1 1073741825.0 10 34
- 0.559907 3 4 cbr 210 ------- 0 1.1 1073741825.0 10 34
r 0.559907 7 3 prune 80 ------- 30 7.0 3.0 -1 57
+ 0.56 0 2 cbr 210 ------- 0 0.1 1073741824.0 16 79
- 0.56 0 2 cbr 210 ------- 0 0.1 1073741824.0 16 79
+ 0.56 1 2 cbr 210 ------- 0 1.1 1073741825.0 16 80
- 0.56 1 2 cbr 210 ------- 0 1.1 1073741825.0 16 80
r 0.5606 4 5 cbr 210 ------- 0 1.1 1073741825.0 4 9
+ 0.5606 5 4 prune 80 ------- 30 5.0 4.0 -1 81
- 0.5606 5 4 prune 80 ------- 30 5.0 4.0 -1 81
r 0.5606 4 6 cbr 210 ------- 0 1.1 1073741825.0 4 9
+ 0.5606 6 4 prune 80 ------- 30 6.0 4.0 -1 82
- 0.5606 6 4 prune 80 ------- 30 6.0 4.0 -1 82
r 0.560897 3 4 cbr 210 ------- 0 0.1 1073741824.0 7 18
+ 0.560897 4 3 prune 80 ------- 30 4.0 3.0 -1 83
- 0.560897 4 3 prune 80 ------- 30 4.0 3.0 -1 83
- 0.56099 2 3 cbr 210 ------- 0 1.1 1073741825.0 13 54
r 0.561027 2 3 cbr 210 ------- 0 0.1 1073741824.0 10 33
+ 0.561027 3 4 cbr 210 ------- 0 0.1 1073741824.0 10 33
- 0.561027 3 4 cbr 210 ------- 0 0.1 1073741824.0 10 33
r 0.562407 5 4 prune 80 ------- 30 5.0 4.0 -1 58
r 0.562407 6 4 prune 80 ------- 30 6.0 4.0 -1 59
r 0.562537 7 3 prune 80 ------- 30 7.0 3.0 -1 60
r 0.56323 4 5 cbr 210 ------- 0 0.1 1073741824.0 5 10
+ 0.56323 5 4 prune 80 ------- 30 5.0 4.0 -1 84
- 0.56323 5 4 prune 80 ------- 30 5.0 4.0 -1 84
r 0.56323 4 6 cbr 210 ------- 0 0.1 1073741824.0 5 10
+ 0.56323 6 4 prune 80 ------- 30 6.0 4.0 -1 85
- 0.56323 6 4 prune 80 ------- 30 6.0 4.0 -1 85
r 0.563527 3 4 cbr 210 ------- 0 1.1 1073741825.0 8 23
+ 0.563527 4 3 prune 80 ------- 30 4.0 3.0 -1 86
- 0.563527 4 3 prune 80 ------- 30 4.0 3.0 -1 86
r 0.563527 5 4 prune 80 ------- 30 5.0 4.0 -1 63
r 0.563527 6 4 prune 80 ------- 30 6.0 4.0 -1 64
r 0.56362 0 2 cbr 210 ------- 0 0.1 1073741824.0 14 61
+ 0.56362 2 3 cbr 210 ------- 0 0.1 1073741824.0 14 61
- 0.56362 2 3 cbr 210 ------- 0 0.1 1073741824.0 14 61
r 0.56362 1 2 cbr 210 ------- 0 1.1 1073741825.0 14 62
+ 0.56362 2 3 cbr 210 ------- 0 1.1 1073741825.0 14 62
r 0.563657 2 3 cbr 210 ------- 0 1.1 1073741825.0 11 40
+ 0.563657 3 4 cbr 210 ------- 0 1.1 1073741825.0 11 40
- 0.563657 3 4 cbr 210 ------- 0 1.1 1073741825.0 11 40
r 0.563657 7 3 prune 80 ------- 30 7.0 3.0 -1 65
+ 0.56375 0 2 cbr 210 ------- 0 0.1 1073741824.0 17 87
- 0.56375 0 2 cbr 210 ------- 0 0.1 1073741824.0 17 87
+ 0.56375 1 2 cbr 210 ------- 0 1.1 1073741825.0 17 88
- 0.56375 1 2 cbr 210 ------- 0 1.1 1073741825.0 17 88
r 0.56435 4 5 cbr 210 ------- 0 1.1 1073741825.0 5 11
+ 0.56435 5 4 prune 80 ------- 30 5.0 4.0 -1 89
- 0.56435 5 4 prune 80 ------- 30 5.0 4.0 -1 89
r 0.56435 4 6 cbr 210 ------- 0 1.1 1073741825.0 5 11
+ 0.56435 6 4 prune 80 ------- 30 6.0 4.0 -1 90
- 0.56435 6 4 prune 80 ------- 30 6.0 4.0 -1 90
r 0.564647 3 4 cbr 210 ------- 0 0.1 1073741824.0 8 22
+ 0.564647 4 3 prune 80 ------- 30 4.0 3.0 -1 91
- 0.564647 4 3 prune 80 ------- 30 4.0 3.0 -1 91
- 0.56474 2 3 cbr 210 ------- 0 1.1 1073741825.0 14 62
r 0.564777 2 3 cbr 210 ------- 0 0.1 1073741824.0 11 39
+ 0.564777 3 4 cbr 210 ------- 0 0.1 1073741824.0 11 39
- 0.564777 3 4 cbr 210 ------- 0 0.1 1073741824.0 11 39
r 0.565333 4 3 prune 80 ------- 30 4.0 3.0 -1 66
+ 0.565333 3 2 prune 80 ------- 30 3.0 2.0 -1 92
- 0.565333 3 2 prune 80 ------- 30 3.0 2.0 -1 92
r 0.566157 5 4 prune 80 ------- 30 5.0 4.0 -1 67
r 0.566157 6 4 prune 80 ------- 30 6.0 4.0 -1 68
r 0.566453 7 3 prune 80 ------- 30 7.0 3.0 -1 69
r 0.566453 4 3 prune 80 ------- 30 4.0 3.0 -1 70
+ 0.566453 3 2 prune 80 ------- 30 3.0 2.0 -1 93
- 0.566453 3 2 prune 80 ------- 30 3.0 2.0 -1 93
r 0.567147 4 5 cbr 210 ------- 0 1.1 1073741825.0 6 15
+ 0.567147 5 4 prune 80 ------- 30 5.0 4.0 -1 94
- 0.567147 5 4 prune 80 ------- 30 5.0 4.0 -1 94
r 0.567147 4 6 cbr 210 ------- 0 1.1 1073741825.0 6 15
+ 0.567147 6 4 prune 80 ------- 30 6.0 4.0 -1 95
- 0.567147 6 4 prune 80 ------- 30 6.0 4.0 -1 95
r 0.56724 2 3 cbr 210 ------- 0 0.1 1073741824.0 12 45
+ 0.56724 3 2 prune 80 ------- 30 3.0 2.0 -1 96
- 0.56724 3 2 prune 80 ------- 30 3.0 2.0 -1 96
r 0.567277 3 4 cbr 210 ------- 0 1.1 1073741825.0 9 28
+ 0.567277 4 3 prune 80 ------- 30 4.0 3.0 -1 97
- 0.567277 4 3 prune 80 ------- 30 4.0 3.0 -1 97
r 0.567277 5 4 prune 80 ------- 30 5.0 4.0 -1 73
r 0.567277 6 4 prune 80 ------- 30 6.0 4.0 -1 74