V -t * -v 1.0a5 -a 0
A -t * -n 1 -p 0 -o 0x7fffffff -c 30 -a 1
A -t * -h 1 -m 1073741823 -s 0
n -t * -a 8 -s 8 -S UP -v circle -c black -i black
n -t * -a 4 -s 4 -S UP -v circle -c black -i black
n -t * -a 0 -s 0 -S UP -v circle -c black -i black
n -t * -a 9 -s 9 -S UP -v circle -c black -i black
n -t * -a 5 -s 5 -S UP -v circle -c black -i black
n -t * -a 1 -s 1 -S UP -v circle -c black -i black
n -t * -a 6 -s 6 -S UP -v circle -c black -i black
n -t * -a 2 -s 2 -S UP -v circle -c black -i black
n -t * -a 7 -s 7 -S UP -v circle -c black -i black
n -t * -a 3 -s 3 -S UP -v circle -c black -i black
l -t * -s 5 -d 6 -S UP -r 1000000 -D 0.01 -c black
X -t * -n 10 -r 0.5Mb -D 10ms -o left
L -t * -s 10 -d 0 -o up
L -t * -s 10 -d 1 -o down
L -t * -s 10 -d 2 -o up
L -t * -s 10 -d 3 -o down
L -t * -s 10 -d 4 -o up
L -t * -s 10 -d 5 -o down
L -t * -s 10 -d 6 -o up
L -t * -s 10 -d 7 -o down
L -t * -s 10 -d 8 -o up
L -t * -s 10 -d 9 -o down
h -t 0.2 -s 1 -d 10 -p tcp -e 40 -c 0 -i 0 -a 0 -x {1.0 8.0 0 ------- null}
+ -t 0.21 -s 1 -d 10 -p tcp -e 40 -c 0 -i 0 -a 0 -x {1.0 8.0 0 ------- null}
- -t 0.21 -s 1 -d 10 -p tcp -e 40 -c 0 -i 0 -a 0 -x {1.0 8.0 0 ------- null}
h -t 0.21 -s 1 -d 10 -p tcp -e 40 -c 0 -i 0 -a 0 -x {1.0 8.0 -1 ------- null}
d -t 0.210004 -s 9 -d 10 -p tcp -e 40 -c 0 -i 0 -a 0 -x {1.0 8.0 0 ------- null}
d -t 0.210004 -s 7 -d 10 -p tcp -e 40 -c 0 -i 0 -a 0 -x {1.0 8.0 0 ------- null}
d -t 0.210004 -s 6 -d 10 -p tcp -e 40 -c 0 -i 0 -a 0 -x {1.0 8.0 0 ------- null}
d -t 0.210004 -s 5 -d 10 -p tcp -e 40 -c 0 -i 0 -a 0 -x {1.0 8.0 0 ------- null}
d -t 0.210004 -s 4 -d 10 -p tcp -e 40 -c 0 -i 0 -a 0 -x {1.0 8.0 0 ------- null}
d -t 0.210004 -s 3 -d 10 -p tcp -e 40 -c 0 -i 0 -a 0 -x {1.0 8.0 0 ------- null}
d -t 0.210004 -s 2 -d 10 -p tcp -e 40 -c 0 -i 0 -a 0 -x {1.0 8.0 0 ------- null}
d -t 0.210004 -s 0 -d 10 -p tcp -e 40 -c 0 -i 0 -a 0 -x {1.0 8.0 0 ------- null}
r -t 0.220004 -s 10 -d 8 -p tcp -e 40 -c 0 -i 0 -a 0 -x {1.0 8.0 0 ------- null}
h -t 0.220004 -s 8 -d 10 -p ack -e 40 -c 0 -i 1 -a 0 -x {8.0 1.0 0 ------- null}
+ -t 0.230004 -s 8 -d 10 -p ack -e 40 -c 0 -i 1 -a 0 -x {8.0 1.0 0 ------- null}
- -t 0.230004 -s 8 -d 10 -p ack -e 40 -c 0 -i 1 -a 0 -x {8.0 1.0 0 ------- null}
h -t 0.230004 -s 8 -d 10 -p ack -e 40 -c 0 -i 1 -a 0 -x {8.0 1.0 -1 ------- null}
d -t 0.230008 -s 9 -d 10 -p ack -e 40 -c 0 -i 1 -a 0 -x {8.0 1.0 0 ------- null}
d -t 0.230008 -s 7 -d 10 -p ack -e 40 -c 0 -i 1 -a 0 -x {8.0 1.0 0 ------- null}
d -t 0.230008 -s 6 -d 10 -p ack -e 40 -c 0 -i 1 -a 0 -x {8.0 1.0 0 ------- null}
d -t 0.230008 -s 5 -d 10 -p ack -e 40 -c 0 -i 1 -a 0 -x {8.0 1.0 0 ------- null}
d -t 0.230008 -s 4 -d 10 -p ack -e 40 -c 0 -i 1 -a 0 -x {8.0 1.0 0 ------- null}
d -t 0.230008 -s 3 -d 10 -p ack -e 40 -c 0 -i 1 -a 0 -x {8.0 1.0 0 ------- null}
d -t 0.230008 -s 2 -d 10 -p ack -e 40 -c 0 -i 1 -a 0 -x {8.0 1.0 0 ------- null}
d -t 0.230008 -s 0 -d 10 -p ack -e 40 -c 0 -i 1 -a 0 -x {8.0 1.0 0 ------- null}
r -t 0.240008 -s 10 -d 1 -p ack -e 40 -c 0 -i 1 -a 0 -x {8.0 1.0 0 ------- null}
h -t 0.240008 -s 1 -d 10 -p tcp -e 1040 -c 0 -i 2 -a 0 -x {1.0 8.0 1 ------- null}
h -t 0.240008 -s 1 -d 10 -p tcp -e 1040 -c 0 -i 3 -a 0 -x {1.0 8.0 2 ------- null}
+ -t 0.250008 -s 1 -d 10 -p tcp -e 1040 -c 0 -i 2 -a 0 -x {1.0 8.0 1 ------- null}
- -t 0.250008 -s 1 -d 10 -p tcp -e 1040 -c 0 -i 2 -a 0 -x {1.0 8.0 1 ------- null}
h -t 0.250008 -s 1 -d 10 -p tcp -e 1040 -c 0 -i 2 -a 0 -x {1.0 8.0 -1 ------- null}
+ -t 0.250008 -s 1 -d 10 -p tcp -e 1040 -c 0 -i 3 -a 0 -x {1.0 8.0 2 ------- null}
d -t 0.250012 -s 9 -d 10 -p tcp -e 1040 -c 0 -i 2 -a 0 -x {1.0 8.0 1 ------- null}
d -t 0.250012 -s 7 -d 10 -p tcp -e 1040 -c 0 -i 2 -a 0 -x {1.0 8.0 1 ------- null}
d -t 0.250012 -s 6 -d 10 -p tcp -e 1040 -c 0 -i 2 -a 0 -x {1.0 8.0 1 ------- null}
d -t 0.250012 -s 5 -d 10 -p tcp -e 1040 -c 0 -i 2 -a 0 -x {1.0 8.0 1 ------- null}
d -t 0.250012 -s 4 -d 10 -p tcp -e 1040 -c 0 -i 2 -a 0 -x {1.0 8.0 1 ------- null}
d -t 0.250012 -s 3 -d 10 -p tcp -e 1040 -c 0 -i 2 -a 0 -x {1.0 8.0 1 ------- null}
d -t 0.250012 -s 2 -d 10 -p tcp -e 1040 -c 0 -i 2 -a 0 -x {1.0 8.0 1 ------- null}
d -t 0.250012 -s 0 -d 10 -p tcp -e 1040 -c 0 -i 2 -a 0 -x {1.0 8.0 1 ------- null}
- -t 0.254424 -s 1 -d 10 -p tcp -e 1040 -c 0 -i 3 -a 0 -x {1.0 8.0 2 ------- null}
h -t 0.254424 -s 1 -d 10 -p tcp -e 1040 -c 0 -i 3 -a 0 -x {1.0 8.0 -1 ------- null}
d -t 0.254428 -s 9 -d 10 -p tcp -e 1040 -c 0 -i 3 -a 0 -x {1.0 8.0 2 ------- null}
d -t 0.254428 -s 7 -d 10 -p tcp -e 1040 -c 0 -i 3 -a 0 -x {1.0 8.0 2 ------- null}
d -t 0.254428 -s 6 -d 10 -p tcp -e 1040 -c 0 -i 3 -a 0 -x {1.0 8.0 2 ------- null}
d -t 0.254428 -s 5 -d 10 -p tcp -e 1040 -c 0 -i 3 -a 0 -x {1.0 8.0 2 ------- null}
d -t 0.254428 -s 4 -d 10 -p tcp -e 1040 -c 0 -i 3 -a 0 -x {1.0 8.0 2 ------- null}
d -t 0.254428 -s 3 -d 10 -p tcp -e 1040 -c 0 -i 3 -a 0 -x {1.0 8.0 2 ------- null}
d -t 0.254428 -s 2 -d 10 -p tcp -e 1040 -c 0 -i 3 -a 0 -x {1.0 8.0 2 ------- null}
d -t 0.254428 -s 0 -d 10 -p tcp -e 1040 -c 0 -i 3 -a 0 -x {1.0 8.0 2 ------- null}
r -t 0.260012 -s 10 -d 8 -p tcp -e 1040 -c 0 -i 2 -a 0 -x {1.0 8.0 1 ------- null}
h -t 0.260012 -s 8 -d 10 -p ack -e 40 -c 0 -i 4 -a 0 -x {8.0 1.0 1 ------- null}
r -t 0.264428 -s 10 -d 8 -p tcp -e 1040 -c 0 -i 3 -a 0 -x {1.0 8.0 2 ------- null}
h -t 0.264428 -s 8 -d 10 -p ack -e 40 -c 0 -i 5 -a 0 -x {8.0 1.0 2 ------- null}
+ -t 0.270012 -s 8 -d 10 -p ack -e 40 -c 0 -i 4 -a 0 -x {8.0 1.0 1 ------- null}
- -t 0.270012 -s 8 -d 10 -p ack -e 40 -c 0 -i 4 -a 0 -x {8.0 1.0 1 ------- null}
h -t 0.270012 -s 8 -d 10 -p ack -e 40 -c 0 -i 4 -a 0 -x {8.0 1.0 -1 ------- null}
d -t 0.270016 -s 9 -d 10 -p ack -e 40 -c 0 -i 4 -a 0 -x {8.0 1.0 1 ------- null}
d -t 0.270016 -s 7 -d 10 -p ack -e 40 -c 0 -i 4 -a 0 -x {8.0 1.0 1 ------- null}
d -t 0.270016 -s 6 -d 10 -p ack -e 40 -c 0 -i 4 -a 0 -x {8.0 1.0 1 ------- null}
d -t 0.270016 -s 5 -d 10 -p ack -e 40 -c 0 -i 4 -a 0 -x {8.0 1.0 1 ------- null}
d -t 0.270016 -s 4 -d 10 -p ack -e 40 -c 0 -i 4 -a 0 -x {8.0 1.0 1 ------- null}
d -t 0.270016 -s 3 -d 10 -p ack -e 40 -c 0 -i 4 -a 0 -x {8.0 1.0 1 ------- null}
d -t 0.270016 -s 2 -d 10 -p ack -e 40 -c 0 -i 4 -a 0 -x {8.0 1.0 1 ------- null}
d -t 0.270016 -s 0 -d 10 -p ack -e 40 -c 0 -i 4 -a 0 -x {8.0 1.0 1 ------- null}
+ -t 0.274428 -s 8 -d 10 -p ack -e 40 -c 0 -i 5 -a 0 -x {8.0 1.0 2 ------- null}
- -t 0.274428 -s 8 -d 10 -p ack -e 40 -c 0 -i 5 -a 0 -x {8.0 1.0 2 ------- null}
h -t 0.274428 -s 8 -d 10 -p ack -e 40 -c 0 -i 5 -a 0 -x {8.0 1.0 -1 ------- null}
d -t 0.274432 -s 9 -d 10 -p ack -e 40 -c 0 -i 5 -a 0 -x {8.0 1.0 2 ------- null}
d -t 0.274432 -s 7 -d 10 -p ack -e 40 -c 0 -i 5 -a 0 -x {8.0 1.0 2 ------- null}
d -t 0.274432 -s 6 -d 10 -p ack -e 40 -c 0 -i 5 -a 0 -x {8.0 1.0 2 ------- null}
d -t 0.274432 -s 5 -d 10 -p ack -e 40 -c 0 -i 5 -a 0 -x {8.0 1.0 2 ------- null}
d -t 0.274432 -s 4 -d 10 -p ack -e 40 -c 0 -i 5 -a 0 -x {8.0 1.0 2 ------- null}
d -t 0.274432 -s 3 -d 10 -p ack -e 40 -c 0 -i 5 -a 0 -x {8.0 1.0 2 ------- null}
d -t 0.274432 -s 2 -d 10 -p ack -e 40 -c 0 -i 5 -a 0 -x {8.0 1.0 2 ------- null}
d -t 0.274432 -s 0 -d 10 -p ack -e 40 -c 0 -i 5 -a 0 -x {8.0 1.0 2 ------- null}
r -t 0.280016 -s 10 -d 1 -p ack -e 40 -c 0 -i 4 -a 0 -x {8.0 1.0 1 ------- null}
h -t 0.280016 -s 1 -d 10 -p tcp -e 1040 -c 0 -i 6 -a 0 -x {1.0 8.0 3 ------- null}
h -t 0.280016 -s 1 -d 10 -p tcp -e 1040 -c 0 -i 7 -a 0 -x {1.0 8.0 4 ------- null}
r -t 0.284432 -s 10 -d 1 -p ack -e 40 -c 0 -i 5 -a 0 -x {8.0 1.0 2 ------- null}
h -t 0.284432 -s 1 -d 10 -p tcp -e 1040 -c 0 -i 8 -a 0 -x {1.0 8.0 5 ------- null}
h -t 0.284432 -s 1 -d 10 -p tcp -e 1040 -c 0 -i 9 -a 0 -x {1.0 8.0 6 ------- null}
+ -t 0.290016 -s 1 -d 10 -p tcp -e 1040 -c 0 -i 6 -a 0 -x {1.0 8.0 3 ------- null}
- -t 0.290016 -s 1 -d 10 -p tcp -e 1040 -c 0 -i 6 -a 0 -x {1.0 8.0 3 ------- null}
h -t 0.290016 -s 1 -d 10 -p tcp -e 1040 -c 0 -i 6 -a 0 -x {1.0 8.0 -1 ------- null}
+ -t 0.290016 -s 1 -d 10 -p tcp -e 1040 -c 0 -i 7 -a 0 -x {1.0 8.0 4 ------- null}
d -t 0.29002 -s 9 -d 10 -p tcp -e 1040 -c 0 -i 6 -a 0 -x {1.0 8.0 3 ------- null}
d -t 0.29002 -s 7 -d 10 -p tcp -e 1040 -c 0 -i 6 -a 0 -x {1.0 8.0 3 ------- null}
d -t 0.29002 -s 6 -d 10 -p tcp -e 1040 -c 0 -i 6 -a 0 -x {1.0 8.0 3 ------- null}
d -t 0.29002 -s 5 -d 10 -p tcp -e 1040 -c 0 -i 6 -a 0 -x {1.0 8.0 3 ------- null}
d -t 0.29002 -s 4 -d 10 -p tcp -e 1040 -c 0 -i 6 -a 0 -x {1.0 8.0 3 ------- null}
d -t 0.29002 -s 3 -d 10 -p tcp -e 1040 -c 0 -i 6 -a 0 -x {1.0 8.0 3 ------- null}
d -t 0.29002 -s 2 -d 10 -p tcp -e 1040 -c 0 -i 6 -a 0 -x {1.0 8.0 3 ------- null}
d -t 0.29002 -s 0 -d 10 -p tcp -e 1040 -c 0 -i 6 -a 0 -x {1.0 8.0 3 ------- null}
+ -t 0.294432 -s 1 -d 10 -p tcp -e 1040 -c 0 -i 8 -a 0 -x {1.0 8.0 5 ------- null}
+ -t 0.294432 -s 1 -d 10 -p tcp -e 1040 -c 0 -i 9 -a 0 -x {1.0 8.0 6 ------- null}
- -t 0.294432 -s 1 -d 10 -p tcp -e 1040 -c 0 -i 7 -a 0 -x {1.0 8.0 4 ------- null}
h -t 0.294432 -s 1 -d 10 -p tcp -e 1040 -c 0 -i 7 -a 0 -x {1.0 8.0 -1 ------- null}
d -t 0.294436 -s 9 -d 10 -p tcp -e 1040 -c 0 -i 7 -a 0 -x {1.0 8.0 4 ------- null}
d -t 0.294436 -s 7 -d 10 -p tcp -e 1040 -c 0 -i 7 -a 0 -x {1.0 8.0 4 ------- null}
d -t 0.294436 -s 6 -d 10 -p tcp -e 1040 -c 0 -i 7 -a 0 -x {1.0 8.0 4 ------- null}
d -t 0.294436 -s 5 -d 10 -p tcp -e 1040 -c 0 -i 7 -a 0 -x {1.0 8.0 4 ------- null}
d -t 0.294436 -s 4 -d 10 -p tcp -e 1040 -c 0 -i 7 -a 0 -x {1.0 8.0 4 ------- null}
d -t 0.294436 -s 3 -d 10 -p tcp -e 1040 -c 0 -i 7 -a 0 -x {1.0 8.0 4 ------- null}
d -t 0.294436 -s 2 -d 10 -p tcp -e 1040 -c 0 -i 7 -a 0 -x {1.0 8.0 4 ------- null}
d -t 0.294436 -s 0 -d 10 -p tcp -e 1040 -c 0 -i 7 -a 0 -x {1.0 8.0 4 ------- null}
- -t 0.298848 -s 1 -d 10 -p tcp -e 1040 -c 0 -i 8 -a 0 -x {1.0 8.0 5 ------- null}
h -t 0.298848 -s 1 -d 10 -p tcp -e 1040 -c 0 -i 8 -a 0 -x {1.0 8.0 -1 ------- null}
d -t 0.298852 -s 9 -d 10 -p tcp -e 1040 -c 0 -i 8 -a 0 -x {1.0 8.0 5 ------- null}
d -t 0.298852 -s 7 -d 10 -p tcp -e 1040 -c 0 -i 8 -a 0 -x {1.0 8.0 5 ------- null}
d -t 0.298852 -s 6 -d 10 -p tcp -e 1040 -c 0 -i 8 -a 0 -x {1.0 8.0 5 ------- null}
d -t 0.298852 -s 5 -d 10 -p tcp -e 1040 -c 0 -i 8 -a 0 -x {1.0 8.0 5 ------- null}
d -t 0.298852 -s 4 -d 10 -p tcp -e 1040 -c 0 -i 8 -a 0 -x {1.0 8.0 5 ------- null}
d -t 0.298852 -s 3 -d 10 -p tcp -e 1040 -c 0 -i 8 -a 0 -x {1.0 8.0 5 ------- null}
d -t 0.298852 -s 2 -d 10 -p tcp -e 1040 -c 0 -i 8 -a 0 -x {1.0 8.0 5 ------- null}
d -t 0.298852 -s 0 -d 10 -p tcp -e 1040 -c 0 -i 8 -a 0 -x {1.0 8.0 5 ------- null}
r -t 0.30002 -s 10 -d 8 -p tcp -e 1040 -c 0 -i 6 -a 0 -x {1.0 8.0 3 ------- null}
h -t 0.30002 -s 8 -d 10 -p ack -e 40 -c 0 -i 10 -a 0 -x {8.0 1.0 3 ------- null}
- -t 0.303264 -s 1 -d 10 -p tcp -e 1040 -c 0 -i 9 -a 0 -x {1.0 8.0 6 ------- null}
h -t 0.303264 -s 1 -d 10 -p tcp -e 1040 -c 0 -i 9 -a 0 -x {1.0 8.0 -1 ------- null}
d -t 0.303268 -s 9 -d 10 -p tcp -e 1040 -c 0 -i 9 -a 0 -x {1.0 8.0 6 ------- null}
d -t 0.303268 -s 7 -d 10 -p tcp -e 1040 -c 0 -i 9 -a 0 -x {1.0 8.0 6 ------- null}
d -t 0.303268 -s 6 -d 10 -p tcp -e 1040 -c 0 -i 9 -a 0 -x {1.0 8.0 6 ------- null}
d -t 0.303268 -s 5 -d 10 -p tcp -e 1040 -c 0 -i 9 -a 0 -x {1.0 8.0 6 ------- null}
d -t 0.303268 -s 4 -d 10 -p tcp -e 1040 -c 0 -i 9 -a 0 -x {1.0 8.0 6 ------- null}
d -t 0.303268 -s 3 -d 10 -p tcp -e 1040 -c 0 -i 9 -a 0 -x {1.0 8.0 6 ------- null}
d -t 0.303268 -s 2 -d 10 -p tcp -e 1040 -c 0 -i 9 -a 0 -x {1.0 8.0 6 ------- null}
d -t 0.303268 -s 0 -d 10 -p tcp -e 1040 -c 0 -i 9 -a 0 -x {1.0 8.0 6 ------- null}
r -t 0.304436 -s 10 -d 8 -p tcp -e 1040 -c 0 -i 7 -a 0 -x {1.0 8.0 4 ------- null}
h -t 0.304436 -s 8 -d 10 -p ack -e 40 -c 0 -i 11 -a 0 -x {8.0 1.0 4 ------- null}
r -t 0.308852 -s 10 -d 8 -p tcp -e 1040 -c 0 -i 8 -a 0 -x {1.0 8.0 5 ------- null}
h -t 0.308852 -s 8 -d 10 -p ack -e 40 -c 0 -i 12 -a 0 -x {8.0 1.0 5 ------- null}
+ -t 0.31002 -s 8 -d 10 -p ack -e 40 -c 0 -i 10 -a 0 -x {8.0 1.0 3 ------- null}
- -t 0.31002 -s 8 -d 10 -p ack -e 40 -c 0 -i 10 -a 0 -x {8.0 1.0 3 ------- null}
h -t 0.31002 -s 8 -d 10 -p ack -e 40 -c 0 -i 10 -a 0 -x {8.0 1.0 -1 ------- null}
d -t 0.310024 -s 9 -d 10 -p ack -e 40 -c 0 -i 10 -a 0 -x {8.0 1.0 3 ------- null}
d -t 0.310024 -s 7 -d 10 -p ack -e 40 -c 0 -i 10 -a 0 -x {8.0 1.0 3 ------- null}
d -t 0.310024 -s 6 -d 10 -p ack -e 40 -c 0 -i 10 -a 0 -x {8.0 1.0 3 ------- null}
d -t 0.310024 -s 5 -d 10 -p ack -e 40 -c 0 -i 10 -a 0 -x {8.0 1.0 3 ------- null}
d -t 0.310024 -s 4 -d 10 -p ack -e 40 -c 0 -i 10 -a 0 -x {8.0 1.0 3 ------- null}
d -t 0.310024 -s 3 -d 10 -p ack -e 40 -c 0 -i 10 -a 0 -x {8.0 1.0 3 ------- null}
d -t 0.310024 -s 2 -d 10 -p ack -e 40 -c 0 -i 10 -a 0 -x {8.0 1.0 3 ------- null}
d -t 0.310024 -s 0 -d 10 -p ack -e 40 -c 0 -i 10 -a 0 -x {8.0 1.0 3 ------- null}
r -t 0.313268 -s 10 -d 8 -p tcp -e 1040 -c 0 -i 9 -a 0 -x {1.0 8.0 6 ------- null}
h -t 0.313268 -s 8 -d 10 -p ack -e 40 -c 0 -i 13 -a 0 -x {8.0 1.0 6 ------- null}
+ -t 0.314436 -s 8 -d 10 -p ack -e 40 -c 0 -i 11 -a 0 -x {8.0 1.0 4 ------- null}
- -t 0.314436 -s 8 -d 10 -p ack -e 40 -c 0 -i 11 -a 0 -x {8.0 1.0 4 ------- null}
h -t 0.314436 -s 8 -d 10 -p ack -e 40 -c 0 -i 11 -a 0 -x {8.0 1.0 -1 ------- null}
d -t 0.31444 -s 9 -d 10 -p ack -e 40 -c 0 -i 11 -a 0 -x {8.0 1.0 4 ------- null}
d -t 0.31444 -s 7 -d 10 -p ack -e 40 -c 0 -i 11 -a 0 -x {8.0 1.0 4 ------- null}
d -t 0.31444 -s 6 -d 10 -p ack -e 40 -c 0 -i 11 -a 0 -x {8.0 1.0 4 ------- null}
d -t 0.31444 -s 5 -d 10 -p ack -e 40 -c 0 -i 11 -a 0 -x {8.0 1.0 4 ------- null}
d -t 0.31444 -s 4 -d 10 -p ack -e 40 -c 0 -i 11 -a 0 -x {8.0 1.0 4 ------- null}
d -t 0.31444 -s 3 -d 10 -p ack -e 40 -c 0 -i 11 -a 0 -x {8.0 1.0 4 ------- null}
d -t 0.31444 -s 2 -d 10 -p ack -e 40 -c 0 -i 11 -a 0 -x {8.0 1.0 4 ------- null}
d -t 0.31444 -s 0 -d 10 -p ack -e 40 -c 0 -i 11 -a 0 -x {8.0 1.0 4 ------- null}
+ -t 0.318852 -s 8 -d 10 -p ack -e 40 -c 0 -i 12 -a 0 -x {8.0 1.0 5 ------- null}
- -t 0.318852 -s 8 -d 10 -p ack -e 40 -c 0 -i 12 -a 0 -x {8.0 1.0 5 ------- null}
h -t 0.318852 -s 8 -d 10 -p ack -e 40 -c 0 -i 12 -a 0 -x {8.0 1.0 -1 ------- null}
d -t 0.318856 -s 9 -d 10 -p ack -e 40 -c 0 -i 12 -a 0 -x {8.0 1.0 5 ------- null}
d -t 0.318856 -s 7 -d 10 -p ack -e 40 -c 0 -i 12 -a 0 -x {8.0 1.0 5 ------- null}
d -t 0.318856 -s 6 -d 10 -p ack -e 40 -c 0 -i 12 -a 0 -x {8.0 1.0 5 ------- null}
d -t 0.318856 -s 5 -d 10 -p ack -e 40 -c 0 -i 12 -a 0 -x {8.0 1.0 5 ------- null}
d -t 0.318856 -s 4 -d 10 -p ack -e 40 -c 0 -i 12 -a 0 -x {8.0 1.0 5 ------- null}
d -t 0.318856 -s 3 -d 10 -p ack -e 40 -c 0 -i 12 -a 0 -x {8.0 1.0 5 ------- null}
d -t 0.318856 -s 2 -d 10 -p ack -e 40 -c 0 -i 12 -a 0 -x {8.0 1.0 5 ------- null}
d -t 0.318856 -s 0 -d 10 -p ack -e 40 -c 0 -i 12 -a 0 -x {8.0 1.0 5 ------- null}
r -t 0.320024 -s 10 -d 1 -p ack -e 40 -c 0 -i 10 -a 0 -x {8.0 1.0 3 ------- null}
h -t 0.320024 -s 1 -d 10 -p tcp -e 1040 -c 0 -i 14 -a 0 -x {1.0 8.0 7 ------- null}
h -t 0.320024 -s 1 -d 10 -p tcp -e 1040 -c 0 -i 15 -a 0 -x {1.0 8.0 8 ------- null}
+ -t 0.323268 -s 8 -d 10 -p ack -e 40 -c 0 -i 13 -a 0 -x {8.0 1.0 6 ------- null}
- -t 0.323268 -s 8 -d 10 -p ack -e 40 -c 0 -i 13 -a 0 -x {8.0 1.0 6 ------- null}
h -t 0.323268 -s 8 -d 10 -p ack -e 40 -c 0 -i 13 -a 0 -x {8.0 1.0 -1 ------- null}
d -t 0.323272 -s 9 -d 10 -p ack -e 40 -c 0 -i 13 -a 0 -x {8.0 1.0 6 ------- null}
d -t 0.323272 -s 7 -d 10 -p ack -e 40 -c 0 -i 13 -a 0 -x {8.0 1.0 6 ------- null}
d -t 0.323272 -s 6 -d 10 -p ack -e 40 -c 0 -i 13 -a 0 -x {8.0 1.0 6 ------- null}
d -t 0.323272 -s 5 -d 10 -p ack -e 40 -c 0 -i 13 -a 0 -x {8.0 1.0 6 ------- null}
d -t 0.323272 -s 4 -d 10 -p ack -e 40 -c 0 -i 13 -a 0 -x {8.0 1.0 6 ------- null}
d -t 0.323272 -s 3 -d 10 -p ack -e 40 -c 0 -i 13 -a 0 -x {8.0 1.0 6 ------- null}
d -t 0.323272 -s 2 -d 10 -p ack -e 40 -c 0 -i 13 -a 0 -x {8.0 1.0 6 ------- null}
d -t 0.323272 -s 0 -d 10 -p ack -e 40 -c 0 -i 13 -a 0 -x {8.0 1.0 6 ------- null}
r -t 0.32444 -s 10 -d 1 -p ack -e 40 -c 0 -i 11 -a 0 -x {8.0 1.0 4 ------- null}
h -t 0.32444 -s 1 -d 10 -p tcp -e 1040 -c 0 -i 16 -a 0 -x {1.0 8.0 9 ------- null}
h -t 0.32444 -s 1 -d 10 -p tcp -e 1040 -c 0 -i 17 -a 0 -x {1.0 8.0 10 ------- null}
r -t 0.328856 -s 10 -d 1 -p ack -e 40 -c 0 -i 12 -a 0 -x {8.0 1.0 5 ------- null}
h -t 0.328856 -s 1 -d 10 -p tcp -e 1040 -c 0 -i 18 -a 0 -x {1.0 8.0 11 ------- null}
h -t 0.328856 -s 1 -d 10 -p tcp -e 1040 -c 0 -i 19 -a 0 -x {1.0 8.0 12 ------- null}
+ -t 0.330024 -s 1 -d 10 -p tcp -e 1040 -c 0 -i 14 -a 0 -x {1.0 8.0 7 ------- null}
- -t 0.330024 -s 1 -d 10 -p tcp -e 1040 -c 0 -i 14 -a 0 -x {1.0 8.0 7 ------- null}
h -t 0.330024 -s 1 -d 10 -p tcp -e 1040 -c 0 -i 14 -a 0 -x {1.0 8.0 -1 ------- null}
+ -t 0.330024 -s 1 -d 10 -p tcp -e 1040 -c 0 -i 15 -a 0 -x {1.0 8.0 8 ------- null}
d -t 0.330028 -s 9 -d 10 -p tcp -e 1040 -c 0 -i 14 -a 0 -x {1.0 8.0 7 ------- null}
d -t 0.330028 -s 7 -d 10 -p tcp -e 1040 -c 0 -i 14 -a 0 -x {1.0 8.0 7 ------- null}
d -t 0.330028 -s 6 -d 10 -p tcp -e 1040 -c 0 -i 14 -a 0 -x {1.0 8.0 7 ------- null}
d -t 0.330028 -s 5 -d 10 -p tcp -e 1040 -c 0 -i 14 -a 0 -x {1.0 8.0 7 ------- null}
d -t 0.330028 -s 4 -d 10 -p tcp -e 1040 -c 0 -i 14 -a 0 -x {1.0 8.0 7 ------- null}
d -t 0.330028 -s 3 -d 10 -p tcp -e 1040 -c 0 -i 14 -a 0 -x {1.0 8.0 7 ------- null}
d -t 0.330028 -s 2 -d 10 -p tcp -e 1040 -c 0 -i 14 -a 0 -x {1.0 8.0 7 ------- null}
d -t 0.330028 -s 0 -d 10 -p tcp -e 1040 -c 0 -i 14 -a 0 -x {1.0 8.0 7 ------- null}
r -t 0.333272 -s 10 -d 1 -p ack -e 40 -c 0 -i 13 -a 0 -x {8.0 1.0 6 ------- null}
h -t 0.333272 -s 1 -d 10 -p tcp -e 1040 -c 0 -i 20 -a 0 -x {1.0 8.0 13 ------- null}
h -t 0.333272 -s 1 -d 10 -p tcp -e 1040 -c 0 -i 21 -a 0 -x {1.0 8.0 14 ------- null}
+ -t 0.33444 -s 1 -d 10 -p tcp -e 1040 -c 0 -i 16 -a 0 -x {1.0 8.0 9 ------- null}
+ -t 0.33444 -s 1 -d 10 -p tcp -e 1040 -c 0 -i 17 -a 0 -x {1.0 8.0 10 ------- null}
- -t 0.33444 -s 1 -d 10 -p tcp -e 1040 -c 0 -i 15 -a 0 -x {1.0 8.0 8 ------- null}
h -t 0.33444 -s 1 -d 10 -p tcp -e 1040 -c 0 -i 15 -a 0 -x {1.0 8.0 -1 ------- null}
d -t 0.334444 -s 9 -d 10 -p tcp -e 1040 -c 0 -i 15 -a 0 -x {1.0 8.0 8 ------- null}
d -t 0.334444 -s 7 -d 10 -p tcp -e 1040 -c 0 -i 15 -a 0 -x {1.0 8.0 8 ------- null}
d -t 0.334444 -s 6 -d 10 -p tcp -e 1040 -c 0 -i 15 -a 0 -x {1.0 8.0 8 ------- null}
d -t 0.334444 -s 5 -d 10 -p tcp -e 1040 -c 0 -i 15 -a 0 -x {1.0 8.0 8 ------- null}
d -t 0.334444 -s 4 -d 10 -p tcp -e 1040 -c 0 -i 15 -a 0 -x {1.0 8.0 8 ------- null}
d -t 0.334444 -s 3 -d 10 -p tcp -e 1040 -c 0 -i 15 -a 0 -x {1.0 8.0 8 ------- null}
d -t 0.334444 -s 2 -d 10 -p tcp -e 1040 -c 0 -i 15 -a 0 -x {1.0 8.0 8 ------- null}
d -t 0.334444 -s 0 -d 10 -p tcp -e 1040 -c 0 -i 15 -a 0 -x {1.0 8.0 8 ------- null}
+ -t 0.338856 -s 1 -d 10 -p tcp -e 1040 -c 0 -i 18 -a 0 -x {1.0 8.0 11 ------- null}
+ -t 0.338856 -s 1 -d 10 -p tcp -e 1040 -c 0 -i 19 -a 0 -x {1.0 8.0 12 ------- null}
- -t 0.338856 -s 1 -d 10 -p tcp -e 1040 -c 0 -i 16 -a 0 -x {1.0 8.0 9 ------- null}
h -t 0.338856 -s 1 -d 10 -p tcp -e 1040 -c 0 -i 16 -a 0 -x {1.0 8.0 -1 ------- null}
d -t 0.33886 -s 9 -d 10 -p tcp -e 1040 -c 0 -i 16 -a 0 -x {1.0 8.0 9 ------- null}
d -t 0.33886 -s 7 -d 10 -p tcp -e 1040 -c 0 -i 16 -a 0 -x {1.0 8.0 9 ------- null}
d -t 0.33886 -s 6 -d 10 -p tcp -e 1040 -c 0 -i 16 -a 0 -x {1.0 8.0 9 ------- null}
d -t 0.33886 -s 5 -d 10 -p tcp -e 1040 -c 0 -i 16 -a 0 -x {1.0 8.0 9 ------- null}
d -t 0.33886 -s 4 -d 10 -p tcp -e 1040 -c 0 -i 16 -a 0 -x {1.0 8.0 9 ------- null}
d -t 0.33886 -s 3 -d 10 -p tcp -e 1040 -c 0 -i 16 -a 0 -x {1.0 8.0 9 ------- null}
d -t 0.33886 -s 2 -d 10 -p tcp -e 1040 -c 0 -i 16 -a 0 -x {1.0 8.0 9 ------- null}
d -t 0.33886 -s 0 -d 10 -p tcp -e 1040 -c 0 -i 16 -a 0 -x {1.0 8.0 9 ------- null}
r -t 0.340028 -s 10 -d 8 -p tcp -e 1040 -c 0 -i 14 -a 0 -x {1.0 8.0 7 ------- null}
h -t 0.340028 -s 8 -d 10 -p ack -e 40 -c 0 -i 22 -a 0 -x {8.0 1.0 7 ------- null}
+ -t 0.343272 -s 1 -d 10 -p tcp -e 1040 -c 0 -i 20 -a 0 -x {1.0 8.0 13 ------- null}
+ -t 0.343272 -s 1 -d 10 -p tcp -e 1040 -c 0 -i 21 -a 0 -x {1.0 8.0 14 ------- null}
- -t 0.343272 -s 1 -d 10 -p tcp -e 1040 -c 0 -i 17 -a 0 -x {1.0 8.0 10 ------- null}
h -t 0.343272 -s 1 -d 10 -p tcp -e 1040 -c 0 -i 17 -a 0 -x {1.0 8.0 -1 ------- null}
d -t 0.343276 -s 9 -d 10 -p tcp -e 1040 -c 0 -i 17 -a 0 -x {1.0 8.0 10 ------- null}
d -t 0.343276 -s 7 -d 10 -p tcp -e 1040 -c 0 -i 17 -a 0 -x {1.0 8.0 10 ------- null}
d -t 0.343276 -s 6 -d 10 -p tcp -e 1040 -c 0 -i 17 -a 0 -x {1.0 8.0 10 ------- null}
d -t 0.343276 -s 5 -d 10 -p tcp -e 1040 -c 0 -i 17 -a 0 -x {1.0 8.0 10 ------- null}
d -t 0.343276 -s 4 -d 10 -p tcp -e 1040 -c 0 -i 17 -a 0 -x {1.0 8.0 10 ------- null}
d -t 0.343276 -s 3 -d 10 -p tcp -e 1040 -c 0 -i 17 -a 0 -x {1.0 8.0 10 ------- null}
d -t 0.343276 -s 2 -d 10 -p tcp -e 1040 -c 0 -i 17 -a 0 -x {1.0 8.0 10 ------- null}
d -t 0.343276 -s 0 -d 10 -p tcp -e 1040 -c 0 -i 17 -a 0 -x {1.0 8.0 10 ------- null}
r -t 0.344444 -s 10 -d 8 -p tcp -e 1040 -c 0 -i 15 -a 0 -x {1.0 8.0 8 ------- null}
h -t 0.344444 -s 8 -d 10 -p ack -e 40 -c 0 -i 23 -a 0 -x {8.0 1.0 8 ------- null}
- -t 0.347688 -s 1 -d 10 -p tcp -e 1040 -c 0 -i 18 -a 0 -x {1.0 8.0 11 ------- null}
h -t 0.347688 -s 1 -d 10 -p tcp -e 1040 -c 0 -i 18 -a 0 -x {1.0 8.0 -1 ------- null}
d -t 0.347692 -s 9 -d 10 -p tcp -e 1040 -c 0 -i 18 -a 0 -x {1.0 8.0 11 ------- null}
d -t 0.347692 -s 7 -d 10 -p tcp -e 1040 -c 0 -i 18 -a 0 -x {1.0 8.0 11 ------- null}
d -t 0.347692 -s 6 -d 10 -p tcp -e 1040 -c 0 -i 18 -a 0 -x {1.0 8.0 11 ------- null}
d -t 0.347692 -s 5 -d 10 -p tcp -e 1040 -c 0 -i 18 -a 0 -x {1.0 8.0 11 ------- null}
d -t 0.347692 -s 4 -d 10 -p tcp -e 1040 -c 0 -i 18 -a 0 -x {1.0 8.0 11 ------- null}
d -t 0.347692 -s 3 -d 10 -p tcp -e 1040 -c 0 -i 18 -a 0 -x {1.0 8.0 11 ------- null}
d -t 0.347692 -s 2 -d 10 -p tcp -e 1040 -c 0 -i 18 -a 0 -x {1.0 8.0 11 ------- null}
d -t 0.347692 -s 0 -d 10 -p tcp -e 1040 -c 0 -i 18 -a 0 -x {1.0 8.0 11 ------- null}
r -t 0.34886 -s 10 -d 8 -p tcp -e 1040 -c 0 -i 16 -a 0 -x {1.0 8.0 9 ------- null}
h -t 0.34886 -s 8 -d 10 -p ack -e 40 -c 0 -i 24 -a 0 -x {8.0 1.0 9 ------- null}
+ -t 0.350028 -s 8 -d 10 -p ack -e 40 -c 0 -i 22 -a 0 -x {8.0 1.0 7 ------- null}
- -t 0.350028 -s 8 -d 10 -p ack -e 40 -c 0 -i 22 -a 0 -x {8.0 1.0 7 ------- null}
h -t 0.350028 -s 8 -d 10 -p ack -e 40 -c 0 -i 22 -a 0 -x {8.0 1.0 -1 ------- null}
d -t 0.350032 -s 9 -d 10 -p ack -e 40 -c 0 -i 22 -a 0 -x {8.0 1.0 7 ------- null}
d -t 0.350032 -s 7 -d 10 -p ack -e 40 -c 0 -i 22 -a 0 -x {8.0 1.0 7 ------- null}
d -t 0.350032 -s 6 -d 10 -p ack -e 40 -c 0 -i 22 -a 0 -x {8.0 1.0 7 ------- null}
d -t 0.350032 -s 5 -d 10 -p ack -e 40 -c 0 -i 22 -a 0 -x {8.0 1.0 7 ------- null}
d -t 0.350032 -s 4 -d 10 -p ack -e 40 -c 0 -i 22 -a 0 -x {8.0 1.0 7 ------- null}
d -t 0.350032 -s 3 -d 10 -p ack -e 40 -c 0 -i 22 -a 0 -x {8.0 1.0 7 ------- null}
d -t 0.350032 -s 2 -d 10 -p ack -e 40 -c 0 -i 22 -a 0 -x {8.0 1.0 7 ------- null}
d -t 0.350032 -s 0 -d 10 -p ack -e 40 -c 0 -i 22 -a 0 -x {8.0 1.0 7 ------- null}
- -t 0.352104 -s 1 -d 10 -p tcp -e 1040 -c 0 -i 19 -a 0 -x {1.0 8.0 12 ------- null}
h -t 0.352104 -s 1 -d 10 -p tcp -e 1040 -c 0 -i 19 -a 0 -x {1.0 8.0 -1 ------- null}
d -t 0.352108 -s 9 -d 10 -p tcp -e 1040 -c 0 -i 19 -a 0 -x {1.0 8.0 12 ------- null}
d -t 0.352108 -s 7 -d 10 -p tcp -e 1040 -c 0 -i 19 -a 0 -x {1.0 8.0 12 ------- null}
d -t 0.352108 -s 6 -d 10 -p tcp -e 1040 -c 0 -i 19 -a 0 -x {1.0 8.0 12 ------- null}
d -t 0.352108 -s 5 -d 10 -p tcp -e 1040 -c 0 -i 19 -a 0 -x {1.0 8.0 12 ------- null}
d -t 0.352108 -s 4 -d 10 -p tcp -e 1040 -c 0 -i 19 -a 0 -x {1.0 8.0 12 ------- null}
d -t 0.352108 -s 3 -d 10 -p tcp -e 1040 -c 0 -i 19 -a 0 -x {1.0 8.0 12 ------- null}
d -t 0.352108 -s 2 -d 10 -p tcp -e 1040 -c 0 -i 19 -a 0 -x {1.0 8.0 12 ------- null}
d -t 0.352108 -s 0 -d 10 -p tcp -e 1040 -c 0 -i 19 -a 0 -x {1.0 8.0 12 ------- null}
r -t 0.353276 -s 10 -d 8 -p tcp -e 1040 -c 0 -i 17 -a 0 -x {1.0 8.0 10 ------- null}
h -t 0.353276 -s 8 -d 10 -p ack -e 40 -c 0 -i 25 -a 0 -x {8.0 1.0 10 ------- null}
+ -t 0.354444 -s 8 -d 10 -p ack -e 40 -c 0 -i 23 -a 0 -x {8.0 1.0 8 ------- null}
- -t 0.354444 -s 8 -d 10 -p ack -e 40 -c 0 -i 23 -a 0 -x {8.0 1.0 8 ------- null}
h -t 0.354444 -s 8 -d 10 -p ack -e 40 -c 0 -i 23 -a 0 -x {8.0 1.0 -1 ------- null}
d -t 0.354448 -s 9 -d 10 -p ack -e 40 -c 0 -i 23 -a 0 -x {8.0 1.0 8 ------- null}
d -t 0.354448 -s 7 -d 10 -p ack -e 40 -c 0 -i 23 -a 0 -x {8.0 1.0 8 ------- null}
d -t 0.354448 -s 6 -d 10 -p ack -e 40 -c 0 -i 23 -a 0 -x {8.0 1.0 8 ------- null}
d -t 0.354448 -s 5 -d 10 -p ack -e 40 -c 0 -i 23 -a 0 -x {8.0 1.0 8 ------- null}
d -t 0.354448 -s 4 -d 10 -p ack -e 40 -c 0 -i 23 -a 0 -x {8.0 1.0 8 ------- null}
d -t 0.354448 -s 3 -d 10 -p ack -e 40 -c 0 -i 23 -a 0 -x {8.0 1.0 8 ------- null}
d -t 0.354448 -s 2 -d 10 -p ack -e 40 -c 0 -i 23 -a 0 -x {8.0 1.0 8 ------- null}
d -t 0.354448 -s 0 -d 10 -p ack -e 40 -c 0 -i 23 -a 0 -x {8.0 1.0 8 ------- null}
- -t 0.35652 -s 1 -d 10 -p tcp -e 1040 -c 0 -i 20 -a 0 -x {1.0 8.0 13 ------- null}
h -t 0.35652 -s 1 -d 10 -p tcp -e 1040 -c 0 -i 20 -a 0 -x {1.0 8.0 -1 ------- null}
d -t 0.356524 -s 9 -d 10 -p tcp -e 1040 -c 0 -i 20 -a 0 -x {1.0 8.0 13 ------- null}
d -t 0.356524 -s 7 -d 10 -p tcp -e 1040 -c 0 -i 20 -a 0 -x {1.0 8.0 13 ------- null}
d -t 0.356524 -s 6 -d 10 -p tcp -e 1040 -c 0 -i 20 -a 0 -x {1.0 8.0 13 ------- null}
d -t 0.356524 -s 5 -d 10 -p tcp -e 1040 -c 0 -i 20 -a 0 -x {1.0 8.0 13 ------- null}
d -t 0.356524 -s 4 -d 10 -p tcp -e 1040 -c 0 -i 20 -a 0 -x {1.0 8.0 13 ------- null}
d -t 0.356524 -s 3 -d 10 -p tcp -e 1040 -c 0 -i 20 -a 0 -x {1.0 8.0 13 ------- null}
d -t 0.356524 -s 2 -d 10 -p tcp -e 1040 -c 0 -i 20 -a 0 -x {1.0 8.0 13 ------- null}
d -t 0.356524 -s 0 -d 10 -p tcp -e 1040 -c 0 -i 20 -a 0 -x {1.0 8.0 13 ------- null}
r -t 0.357692 -s 10 -d 8 -p tcp -e 1040 -c 0 -i 18 -a 0 -x {1.0 8.0 11 ------- null}
h -t 0.357692 -s 8 -d 10 -p ack -e 40 -c 0 -i 26 -a 0 -x {8.0 1.0 11 ------- null}
+ -t 0.35886 -s 8 -d 10 -p ack -e 40 -c 0 -i 24 -a 0 -x {8.0 1.0 9 ------- null}
- -t 0.35886 -s 8 -d 10 -p ack -e 40 -c 0 -i 24 -a 0 -x {8.0 1.0 9 ------- null}
h -t 0.35886 -s 8 -d 10 -p ack -e 40 -c 0 -i 24 -a 0 -x {8.0 1.0 -1 ------- null}
d -t 0.358864 -s 9 -d 10 -p ack -e 40 -c 0 -i 24 -a 0 -x {8.0 1.0 9 ------- null}
d -t 0.358864 -s 7 -d 10 -p ack -e 40 -c 0 -i 24 -a 0 -x {8.0 1.0 9 ------- null}
d -t 0.358864 -s 6 -d 10 -p ack -e 40 -c 0 -i 24 -a 0 -x {8.0 1.0 9 ------- null}
d -t 0.358864 -s 5 -d 10 -p ack -e 40 -c 0 -i 24 -a 0 -x {8.0 1.0 9 ------- null}
d -t 0.358864 -s 4 -d 10 -p ack -e 40 -c 0 -i 24 -a 0 -x {8.0 1.0 9 ------- null}
d -t 0.358864 -s 3 -d 10 -p ack -e 40 -c 0 -i 24 -a 0 -x {8.0 1.0 9 ------- null}
d -t 0.358864 -s 2 -d 10 -p ack -e 40 -c 0 -i 24 -a 0 -x {8.0 1.0 9 ------- null}
d -t 0.358864 -s 0 -d 10 -p ack -e 40 -c 0 -i 24 -a 0 -x {8.0 1.0 9 ------- null}
r -t 0.360032 -s 10 -d 1 -p ack -e 40 -c 0 -i 22 -a 0 -x {8.0 1.0 7 ------- null}
h -t 0.360032 -s 1 -d 10 -p tcp -e 1040 -c 0 -i 27 -a 0 -x {1.0 8.0 15 ------- null}
h -t 0.360032 -s 1 -d 10 -p tcp -e 1040 -c 0 -i 28 -a 0 -x {1.0 8.0 16 ------- null}
- -t 0.360936 -s 1 -d 10 -p tcp -e 1040 -c 0 -i 21 -a 0 -x {1.0 8.0 14 ------- null}
h -t 0.360936 -s 1 -d 10 -p tcp -e 1040 -c 0 -i 21 -a 0 -x {1.0 8.0 -1 ------- null}
d -t 0.36094 -s 9 -d 10 -p tcp -e 1040 -c 0 -i 21 -a 0 -x {1.0 8.0 14 ------- null}
d -t 0.36094 -s 7 -d 10 -p tcp -e 1040 -c 0 -i 21 -a 0 -x {1.0 8.0 14 ------- null}
d -t 0.36094 -s 6 -d 10 -p tcp -e 1040 -c 0 -i 21 -a 0 -x {1.0 8.0 14 ------- null}
d -t 0.36094 -s 5 -d 10 -p tcp -e 1040 -c 0 -i 21 -a 0 -x {1.0 8.0 14 ------- null}
d -t 0.36094 -s 4 -d 10 -p tcp -e 1040 -c 0 -i 21 -a 0 -x {1.0 8.0 14 ------- null}
d -t 0.36094 -s 3 -d 10 -p tcp -e 1040 -c 0 -i 21 -a 0 -x {1.0 8.0 14 ------- null}
d -t 0.36094 -s 2 -d 10 -p tcp -e 1040 -c 0 -i 21 -a 0 -x {1.0 8.0 14 ------- null}
d -t 0.36094 -s 0 -d 10 -p tcp -e 1040 -c 0 -i 21 -a 0 -x {1.0 8.0 14 ------- null}
r -t 0.362108 -s 10 -d 8 -p tcp -e 1040 -c 0 -i 19 -a 0 -x {1.0 8.0 12 ------- null}
h -t 0.362108 -s 8 -d 10 -p ack -e 40 -c 0 -i 29 -a 0 -x {8.0 1.0 12 ------- null}
+ -t 0.363276 -s 8 -d 10 -p ack -e 40 -c 0 -i 25 -a 0 -x {8.0 1.0 10 ------- null}
- -t 0.363276 -s 8 -d 10 -p ack -e 40 -c 0 -i 25 -a 0 -x {8.0 1.0 10 ------- null}
h -t 0.363276 -s 8 -d 10 -p ack -e 40 -c 0 -i 25 -a 0 -x {8.0 1.0 -1 ------- null}
d -t 0.36328 -s 9 -d 10 -p ack -e 40 -c 0 -i 25 -a 0 -x {8.0 1.0 10 ------- null}
d -t 0.36328 -s 7 -d 10 -p ack -e 40 -c 0 -i 25 -a 0 -x {8.0 1.0 10 ------- null}
d -t 0.36328 -s 6 -d 10 -p ack -e 40 -c 0 -i 25 -a 0 -x {8.0 1.0 10 ------- null}
d -t 0.36328 -s 5 -d 10 -p ack -e 40 -c 0 -i 25 -a 0 -x {8.0 1.0 10 ------- null}
d -t 0.36328 -s 4 -d 10 -p ack -e 40 -c 0 -i 25 -a 0 -x {8.0 1.0 10 ------- null}
d -t 0.36328 -s 3 -d 10 -p ack -e 40 -c 0 -i 25 -a 0 -x {8.0 1.0 10 ------- null}
d -t 0.36328 -s 2 -d 10 -p ack -e 40 -c 0 -i 25 -a 0 -x {8.0 1.0 10 ------- null}
d -t 0.36328 -s 0 -d 10 -p ack -e 40 -c 0 -i 25 -a 0 -x {8.0 1.0 10 ------- null}
r -t 0.364448 -s 10 -d 1 -p ack -e 40 -c 0 -i 23 -a 0 -x {8.0 1.0 8 ------- null}
h -t 0.364448 -s 1 -d 10 -p tcp -e 1040 -c 0 -i 30 -a 0 -x {1.0 8.0 17 ------- null}
h -t 0.364448 -s 1 -d 10 -p tcp -e 1040 -c 0 -i 31 -a 0 -x {1.0 8.0 18 ------- null}
r -t 0.366524 -s 10 -d 8 -p tcp -e 1040 -c 0 -i 20 -a 0 -x {1.0 8.0 13 ------- null}
h -t 0.366524 -s 8 -d 10 -p ack -e 40 -c 0 -i 32 -a 0 -x {8.0 1.0 13 ------- null}
+ -t 0.367692 -s 8 -d 10 -p ack -e 40 -c 0 -i 26 -a 0 -x {8.0 1.0 11 ------- null}
- -t 0.367692 -s 8 -d 10 -p ack -e 40 -c 0 -i 26 -a 0 -x {8.0 1.0 11 ------- null}
h -t 0.367692 -s 8 -d 10 -p ack -e 40 -c 0 -i 26 -a 0 -x {8.0 1.0 -1 ------- null}
d -t 0.367696 -s 9 -d 10 -p ack -e 40 -c 0 -i 26 -a 0 -x {8.0 1.0 11 ------- null}
d -t 0.367696 -s 7 -d 10 -p ack -e 40 -c 0 -i 26 -a 0 -x {8.0 1.0 11 ------- null}
d -t 0.367696 -s 6 -d 10 -p ack -e 40 -c 0 -i 26 -a 0 -x {8.0 1.0 11 ------- null}
d -t 0.367696 -s 5 -d 10 -p ack -e 40 -c 0 -i 26 -a 0 -x {8.0 1.0 11 ------- null}
d -t 0.367696 -s 4 -d 10 -p ack -e 40 -c 0 -i 26 -a 0 -x {8.0 1.0 11 ------- null}