h 0.2 1 10 tcp 40 ------- 0 1.0 8.0 0 0
+ 0.21 1 10 tcp 40 ------- 0 1.0 8.0 0 0
- 0.21 1 10 tcp 40 ------- 0 1.0 8.0 0 0
d 0.210004 9 10 tcp 40 ------- 0 1.0 8.0 0 0
d 0.210004 7 10 tcp 40 ------- 0 1.0 8.0 0 0
d 0.210004 6 10 tcp 40 ------- 0 1.0 8.0 0 0
d 0.210004 5 10 tcp 40 ------- 0 1.0 8.0 0 0
d 0.210004 4 10 tcp 40 ------- 0 1.0 8.0 0 0
d 0.210004 3 10 tcp 40 ------- 0 1.0 8.0 0 0
d 0.210004 2 10 tcp 40 ------- 0 1.0 8.0 0 0
d 0.210004 0 10 tcp 40 ------- 0 1.0 8.0 0 0
r 0.220004 10 8 tcp 40 ------- 0 1.0 8.0 0 0
h 0.220004 8 10 ack 40 ------- 0 8.0 1.0 0 1
+ 0.230004 8 10 ack 40 ------- 0 8.0 1.0 0 1
- 0.230004 8 10 ack 40 ------- 0 8.0 1.0 0 1
d 0.230008 9 10 ack 40 ------- 0 8.0 1.0 0 1
d 0.230008 7 10 ack 40 ------- 0 8.0 1.0 0 1
d 0.230008 6 10 ack 40 ------- 0 8.0 1.0 0 1
d 0.230008 5 10 ack 40 ------- 0 8.0 1.0 0 1
d 0.230008 4 10 ack 40 ------- 0 8.0 1.0 0 1
d 0.230008 3 10 ack 40 ------- 0 8.0 1.0 0 1
d 0.230008 2 10 ack 40 ------- 0 8.0 1.0 0 1
d 0.230008 0 10 ack 40 ------- 0 8.0 1.0 0 1
r 0.240008 10 1 ack 40 ------- 0 8.0 1.0 0 1
h 0.240008 1 10 tcp 1040 ------- 0 1.0 8.0 1 2
h 0.240008 1 10 tcp 1040 ------- 0 1.0 8.0 2 3
+ 0.250008 1 10 tcp 1040 ------- 0 1.0 8.0 1 2
- 0.250008 1 10 tcp 1040 ------- 0 1.0 8.0 1 2
+ 0.250008 1 10 tcp 1040 ------- 0 1.0 8.0 2 3
d 0.250012 9 10 tcp 1040 ------- 0 1.0 8.0 1 2
d 0.250012 7 10 tcp 1040 ------- 0 1.0 8.0 1 2
d 0.250012 6 10 tcp 1040 ------- 0 1.0 8.0 1 2
d 0.250012 5 10 tcp 1040 ------- 0 1.0 8.0 1 2
d 0.250012 4 10 tcp 1040 ------- 0 1.0 8.0 1 2
d 0.250012 3 10 tcp 1040 ------- 0 1.0 8.0 1 2
d 0.250012 2 10 tcp 1040 ------- 0 1.0 8.0 1 2
d 0.250012 0 10 tcp 1040 ------- 0 1.0 8.0 1 2
- 0.254424 1 10 tcp 1040 ------- 0 1.0 8.0 2 3
d 0.254428 9 10 tcp 1040 ------- 0 1.0 8.0 2 3
d 0.254428 7 10 tcp 1040 ------- 0 1.0 8.0 2 3
d 0.254428 6 10 tcp 1040 ------- 0 1.0 8.0 2 3
d 0.254428 5 10 tcp 1040 ------- 0 1.0 8.0 2 3
d 0.254428 4 10 tcp 1040 ------- 0 1.0 8.0 2 3
d 0.254428 3 10 tcp 1040 ------- 0 1.0 8.0 2 3
d 0.254428 2 10 tcp 1040 ------- 0 1.0 8.0 2 3
d 0.254428 0 10 tcp 1040 ------- 0 1.0 8.0 2 3
r 0.260012 10 8 tcp 1040 ------- 0 1.0 8.0 1 2
h 0.260012 8 10 ack 40 ------- 0 8.0 1.0 1 4
r 0.264428 10 8 tcp 1040 ------- 0 1.0 8.0 2 3
h 0.264428 8 10 ack 40 ------- 0 8.0 1.0 2 5
+ 0.270012 8 10 ack 40 ------- 0 8.0 1.0 1 4
- 0.270012 8 10 ack 40 ------- 0 8.0 1.0 1 4
d 0.270016 9 10 ack 40 ------- 0 8.0 1.0 1 4
d 0.270016 7 10 ack 40 ------- 0 8.0 1.0 1 4
d 0.270016 6 10 ack 40 ------- 0 8.0 1.0 1 4
d 0.270016 5 10 ack 40 ------- 0 8.0 1.0 1 4
d 0.270016 4 10 ack 40 ------- 0 8.0 1.0 1 4
d 0.270016 3 10 ack 40 ------- 0 8.0 1.0 1 4
d 0.270016 2 10 ack 40 ------- 0 8.0 1.0 1 4
d 0.270016 0 10 ack 40 ------- 0 8.0 1.0 1 4
+ 0.274428 8 10 ack 40 ------- 0 8.0 1.0 2 5
- 0.274428 8 10 ack 40 ------- 0 8.0 1.0 2 5
d 0.274432 9 10 ack 40 ------- 0 8.0 1.0 2 5
d 0.274432 7 10 ack 40 ------- 0 8.0 1.0 2 5
d 0.274432 6 10 ack 40 ------- 0 8.0 1.0 2 5
d 0.274432 5 10 ack 40 ------- 0 8.0 1.0 2 5
d 0.274432 4 10 ack 40 ------- 0 8.0 1.0 2 5
d 0.274432 3 10 ack 40 ------- 0 8.0 1.0 2 5
d 0.274432 2 10 ack 40 ------- 0 8.0 1.0 2 5
d 0.274432 0 10 ack 40 ------- 0 8.0 1.0 2 5
r 0.280016 10 1 ack 40 ------- 0 8.0 1.0 1 4
h 0.280016 1 10 tcp 1040 ------- 0 1.0 8.0 3 6
h 0.280016 1 10 tcp 1040 ------- 0 1.0 8.0 4 7
r 0.284432 10 1 ack 40 ------- 0 8.0 1.0 2 5
h 0.284432 1 10 tcp 1040 ------- 0 1.0 8.0 5 8
h 0.284432 1 10 tcp 1040 ------- 0 1.0 8.0 6 9
+ 0.290016 1 10 tcp 1040 ------- 0 1.0 8.0 3 6
- 0.290016 1 10 tcp 1040 ------- 0 1.0 8.0 3 6
+ 0.290016 1 10 tcp 1040 ------- 0 1.0 8.0 4 7
d 0.29002 9 10 tcp 1040 ------- 0 1.0 8.0 3 6
d 0.29002 7 10 tcp 1040 ------- 0 1.0 8.0 3 6
d 0.29002 6 10 tcp 1040 ------- 0 1.0 8.0 3 6
d 0.29002 5 10 tcp 1040 ------- 0 1.0 8.0 3 6
d 0.29002 4 10 tcp 1040 ------- 0 1.0 8.0 3 6
d 0.29002 3 10 tcp 1040 ------- 0 1.0 8.0 3 6
d 0.29002 2 10 tcp 1040 ------- 0 1.0 8.0 3 6
d 0.29002 0 10 tcp 1040 ------- 0 1.0 8.0 3 6
+ 0.294432 1 10 tcp 1040 ------- 0 1.0 8.0 5 8
+ 0.294432 1 10 tcp 1040 ------- 0 1.0 8.0 6 9
- 0.294432 1 10 tcp 1040 ------- 0 1.0 8.0 4 7
d 0.294436 9 10 tcp 1040 ------- 0 1.0 8.0 4 7
d 0.294436 7 10 tcp 1040 ------- 0 1.0 8.0 4 7
d 0.294436 6 10 tcp 1040 ------- 0 1.0 8.0 4 7
d 0.294436 5 10 tcp 1040 ------- 0 1.0 8.0 4 7
d 0.294436 4 10 tcp 1040 ------- 0 1.0 8.0 4 7
d 0.294436 3 10 tcp 1040 ------- 0 1.0 8.0 4 7
d 0.294436 2 10 tcp 1040 ------- 0 1.0 8.0 4 7
d 0.294436 0 10 tcp 1040 ------- 0 1.0 8.0 4 7
- 0.298848 1 10 tcp 1040 ------- 0 1.0 8.0 5 8
d 0.298852 9 10 tcp 1040 ------- 0 1.0 8.0 5 8
d 0.298852 7 10 tcp 1040 ------- 0 1.0 8.0 5 8
d 0.298852 6 10 tcp 1040 ------- 0 1.0 8.0 5 8
d 0.298852 5 10 tcp 1040 ------- 0 1.0 8.0 5 8
d 0.298852 4 10 tcp 1040 ------- 0 1.0 8.0 5 8
d 0.298852 3 10 tcp 1040 ------- 0 1.0 8.0 5 8
d 0.298852 2 10 tcp 1040 ------- 0 1.0 8.0 5 8
d 0.298852 0 10 tcp 1040 ------- 0 1.0 8.0 5 8
r 0.30002 10 8 tcp 1040 ------- 0 1.0 8.0 3 6
h 0.30002 8 10 ack 40 ------- 0 8.0 1.0 3 10
- 0.303264 1 10 tcp 1040 ------- 0 1.0 8.0 6 9
d 0.303268 9 10 tcp 1040 ------- 0 1.0 8.0 6 9
d 0.303268 7 10 tcp 1040 ------- 0 1.0 8.0 6 9
d 0.303268 6 10 tcp 1040 ------- 0 1.0 8.0 6 9
d 0.303268 5 10 tcp 1040 ------- 0 1.0 8.0 6 9
d 0.303268 4 10 tcp 1040 ------- 0 1.0 8.0 6 9
d 0.303268 3 10 tcp 1040 ------- 0 1.0 8.0 6 9
d 0.303268 2 10 tcp 1040 ------- 0 1.0 8.0 6 9
d 0.303268 0 10 tcp 1040 ------- 0 1.0 8.0 6 9
r 0.304436 10 8 tcp 1040 ------- 0 1.0 8.0 4 7
h 0.304436 8 10 ack 40 ------- 0 8.0 1.0 4 11
r 0.308852 10 8 tcp 1040 ------- 0 1.0 8.0 5 8
h 0.308852 8 10 ack 40 ------- 0 8.0 1.0 5 12
+ 0.31002 8 10 ack 40 ------- 0 8.0 1.0 3 10
- 0.31002 8 10 ack 40 ------- 0 8.0 1.0 3 10
d 0.310024 9 10 ack 40 ------- 0 8.0 1.0 3 10
d 0.310024 7 10 ack 40 ------- 0 8.0 1.0 3 10
d 0.310024 6 10 ack 40 ------- 0 8.0 1.0 3 10
d 0.310024 5 10 ack 40 ------- 0 8.0 1.0 3 10
d 0.310024 4 10 ack 40 ------- 0 8.0 1.0 3 10
d 0.310024 3 10 ack 40 ------- 0 8.0 1.0 3 10
d 0.310024 2 10 ack 40 ------- 0 8.0 1.0 3 10
d 0.310024 0 10 ack 40 ------- 0 8.0 1.0 3 10
r 0.313268 10 8 tcp 1040 ------- 0 1.0 8.0 6 9
h 0.313268 8 10 ack 40 ------- 0 8.0 1.0 6 13
+ 0.314436 8 10 ack 40 ------- 0 8.0 1.0 4 11
- 0.314436 8 10 ack 40 ------- 0 8.0 1.0 4 11
d 0.31444 9 10 ack 40 ------- 0 8.0 1.0 4 11
d 0.31444 7 10 ack 40 ------- 0 8.0 1.0 4 11
d 0.31444 6 10 ack 40 ------- 0 8.0 1.0 4 11
d 0.31444 5 10 ack 40 ------- 0 8.0 1.0 4 11
d 0.31444 4 10 ack 40 ------- 0 8.0 1.0 4 11
d 0.31444 3 10 ack 40 ------- 0 8.0 1.0 4 11
d 0.31444 2 10 ack 40 ------- 0 8.0 1.0 4 11
d 0.31444 0 10 ack 40 ------- 0 8.0 1.0 4 11
+ 0.318852 8 10 ack 40 ------- 0 8.0 1.0 5 12
- 0.318852 8 10 ack 40 ------- 0 8.0 1.0 5 12
d 0.318856 9 10 ack 40 ------- 0 8.0 1.0 5 12
d 0.318856 7 10 ack 40 ------- 0 8.0 1.0 5 12
d 0.318856 6 10 ack 40 ------- 0 8.0 1.0 5 12
d 0.318856 5 10 ack 40 ------- 0 8.0 1.0 5 12
d 0.318856 4 10 ack 40 ------- 0 8.0 1.0 5 12
d 0.318856 3 10 ack 40 ------- 0 8.0 1.0 5 12
d 0.318856 2 10 ack 40 ------- 0 8.0 1.0 5 12
d 0.318856 0 10 ack 40 ------- 0 8.0 1.0 5 12
r 0.320024 10 1 ack 40 ------- 0 8.0 1.0 3 10
h 0.320024 1 10 tcp 1040 ------- 0 1.0 8.0 7 14
h 0.320024 1 10 tcp 1040 ------- 0 1.0 8.0 8 15
+ 0.323268 8 10 ack 40 ------- 0 8.0 1.0 6 13
- 0.323268 8 10 ack 40 ------- 0 8.0 1.0 6 13
d 0.323272 9 10 ack 40 ------- 0 8.0 1.0 6 13
d 0.323272 7 10 ack 40 ------- 0 8.0 1.0 6 13
d 0.323272 6 10 ack 40 ------- 0 8.0 1.0 6 13
d 0.323272 5 10 ack 40 ------- 0 8.0 1.0 6 13
d 0.323272 4 10 ack 40 ------- 0 8.0 1.0 6 13
d 0.323272 3 10 ack 40 ------- 0 8.0 1.0 6 13
d 0.323272 2 10 ack 40 ------- 0 8.0 1.0 6 13
d 0.323272 0 10 ack 40 ------- 0 8.0 1.0 6 13
r 0.32444 10 1 ack 40 ------- 0 8.0 1.0 4 11
h 0.32444 1 10 tcp 1040 ------- 0 1.0 8.0 9 16
h 0.32444 1 10 tcp 1040 ------- 0 1.0 8.0 10 17
r 0.328856 10 1 ack 40 ------- 0 8.0 1.0 5 12
h 0.328856 1 10 tcp 1040 ------- 0 1.0 8.0 11 18
h 0.328856 1 10 tcp 1040 ------- 0 1.0 8.0 12 19
+ 0.330024 1 10 tcp 1040 ------- 0 1.0 8.0 7 14
- 0.330024 1 10 tcp 1040 ------- 0 1.0 8.0 7 14
+ 0.330024 1 10 tcp 1040 ------- 0 1.0 8.0 8 15
d 0.330028 9 10 tcp 1040 ------- 0 1.0 8.0 7 14
d 0.330028 7 10 tcp 1040 ------- 0 1.0 8.0 7 14
d 0.330028 6 10 tcp 1040 ------- 0 1.0 8.0 7 14
d 0.330028 5 10 tcp 1040 ------- 0 1.0 8.0 7 14
d 0.330028 4 10 tcp 1040 ------- 0 1.0 8.0 7 14
d 0.330028 3 10 tcp 1040 ------- 0 1.0 8.0 7 14
d 0.330028 2 10 tcp 1040 ------- 0 1.0 8.0 7 14
d 0.330028 0 10 tcp 1040 ------- 0 1.0 8.0 7 14
r 0.333272 10 1 ack 40 ------- 0 8.0 1.0 6 13
h 0.333272 1 10 tcp 1040 ------- 0 1.0 8.0 13 20
h 0.333272 1 10 tcp 1040 ------- 0 1.0 8.0 14 21
+ 0.33444 1 10 tcp 1040 ------- 0 1.0 8.0 9 16
+ 0.33444 1 10 tcp 1040 ------- 0 1.0 8.0 10 17
- 0.33444 1 10 tcp 1040 ------- 0 1.0 8.0 8 15
d 0.334444 9 10 tcp 1040 ------- 0 1.0 8.0 8 15
d 0.334444 7 10 tcp 1040 ------- 0 1.0 8.0 8 15
d 0.334444 6 10 tcp 1040 ------- 0 1.0 8.0 8 15
d 0.334444 5 10 tcp 1040 ------- 0 1.0 8.0 8 15
d 0.334444 4 10 tcp 1040 ------- 0 1.0 8.0 8 15
d 0.334444 3 10 tcp 1040 ------- 0 1.0 8.0 8 15
d 0.334444 2 10 tcp 1040 ------- 0 1.0 8.0 8 15
d 0.334444 0 10 tcp 1040 ------- 0 1.0 8.0 8 15
+ 0.338856 1 10 tcp 1040 ------- 0 1.0 8.0 11 18
+ 0.338856 1 10 tcp 1040 ------- 0 1.0 8.0 12 19
- 0.338856 1 10 tcp 1040 ------- 0 1.0 8.0 9 16
d 0.33886 9 10 tcp 1040 ------- 0 1.0 8.0 9 16
d 0.33886 7 10 tcp 1040 ------- 0 1.0 8.0 9 16
d 0.33886 6 10 tcp 1040 ------- 0 1.0 8.0 9 16
d 0.33886 5 10 tcp 1040 ------- 0 1.0 8.0 9 16
d 0.33886 4 10 tcp 1040 ------- 0 1.0 8.0 9 16
d 0.33886 3 10 tcp 1040 ------- 0 1.0 8.0 9 16
d 0.33886 2 10 tcp 1040 ------- 0 1.0 8.0 9 16
d 0.33886 0 10 tcp 1040 ------- 0 1.0 8.0 9 16
r 0.340028 10 8 tcp 1040 ------- 0 1.0 8.0 7 14
h 0.340028 8 10 ack 40 ------- 0 8.0 1.0 7 22
+ 0.343272 1 10 tcp 1040 ------- 0 1.0 8.0 13 20
+ 0.343272 1 10 tcp 1040 ------- 0 1.0 8.0 14 21
- 0.343272 1 10 tcp 1040 ------- 0 1.0 8.0 10 17
d 0.343276 9 10 tcp 1040 ------- 0 1.0 8.0 10 17
d 0.343276 7 10 tcp 1040 ------- 0 1.0 8.0 10 17
d 0.343276 6 10 tcp 1040 ------- 0 1.0 8.0 10 17
d 0.343276 5 10 tcp 1040 ------- 0 1.0 8.0 10 17
d 0.343276 4 10 tcp 1040 ------- 0 1.0 8.0 10 17
d 0.343276 3 10 tcp 1040 ------- 0 1.0 8.0 10 17
d 0.343276 2 10 tcp 1040 ------- 0 1.0 8.0 10 17
d 0.343276 0 10 tcp 1040 ------- 0 1.0 8.0 10 17
r 0.344444 10 8 tcp 1040 ------- 0 1.0 8.0 8 15
h 0.344444 8 10 ack 40 ------- 0 8.0 1.0 8 23
- 0.347688 1 10 tcp 1040 ------- 0 1.0 8.0 11 18
d 0.347692 9 10 tcp 1040 ------- 0 1.0 8.0 11 18
d 0.347692 7 10 tcp 1040 ------- 0 1.0 8.0 11 18
d 0.347692 6 10 tcp 1040 ------- 0 1.0 8.0 11 18
d 0.347692 5 10 tcp 1040 ------- 0 1.0 8.0 11 18
d 0.347692 4 10 tcp 1040 ------- 0 1.0 8.0 11 18
d 0.347692 3 10 tcp 1040 ------- 0 1.0 8.0 11 18
d 0.347692 2 10 tcp 1040 ------- 0 1.0 8.0 11 18
d 0.347692 0 10 tcp 1040 ------- 0 1.0 8.0 11 18
r 0.34886 10 8 tcp 1040 ------- 0 1.0 8.0 9 16
h 0.34886 8 10 ack 40 ------- 0 8.0 1.0 9 24
+ 0.350028 8 10 ack 40 ------- 0 8.0 1.0 7 22
- 0.350028 8 10 ack 40 ------- 0 8.0 1.0 7 22
d 0.350032 9 10 ack 40 ------- 0 8.0 1.0 7 22
d 0.350032 7 10 ack 40 ------- 0 8.0 1.0 7 22
d 0.350032 6 10 ack 40 ------- 0 8.0 1.0 7 22
d 0.350032 5 10 ack 40 ------- 0 8.0 1.0 7 22
d 0.350032 4 10 ack 40 ------- 0 8.0 1.0 7 22
d 0.350032 3 10 ack 40 ------- 0 8.0 1.0 7 22
d 0.350032 2 10 ack 40 ------- 0 8.0 1.0 7 22
d 0.350032 0 10 ack 40 ------- 0 8.0 1.0 7 22
- 0.352104 1 10 tcp 1040 ------- 0 1.0 8.0 12 19
d 0.352108 9 10 tcp 1040 ------- 0 1.0 8.0 12 19
d 0.352108 7 10 tcp 1040 ------- 0 1.0 8.0 12 19
d 0.352108 6 10 tcp 1040 ------- 0 1.0 8.0 12 19
d 0.352108 5 10 tcp 1040 ------- 0 1.0 8.0 12 19
d 0.352108 4 10 tcp 1040 ------- 0 1.0 8.0 12 19
d 0.352108 3 10 tcp 1040 ------- 0 1.0 8.0 12 19
d 0.352108 2 10 tcp 1040 ------- 0 1.0 8.0 12 19
d 0.352108 0 10 tcp 1040 ------- 0 1.0 8.0 12 19
r 0.353276 10 8 tcp 1040 ------- 0 1.0 8.0 10 17
h 0.353276 8 10 ack 40 ------- 0 8.0 1.0 10 25
+ 0.354444 8 10 ack 40 ------- 0 8.0 1.0 8 23
- 0.354444 8 10 ack 40 ------- 0 8.0 1.0 8 23
d 0.354448 9 10 ack 40 ------- 0 8.0 1.0 8 23
d 0.354448 7 10 ack 40 ------- 0 8.0 1.0 8 23
d 0.354448 6 10 ack 40 ------- 0 8.0 1.0 8 23
d 0.354448 5 10 ack 40 ------- 0 8.0 1.0 8 23
d 0.354448 4 10 ack 40 ------- 0 8.0 1.0 8 23
d 0.354448 3 10 ack 40 ------- 0 8.0 1.0 8 23
d 0.354448 2 10 ack 40 ------- 0 8.0 1.0 8 23
d 0.354448 0 10 ack 40 ------- 0 8.0 1.0 8 23
- 0.35652 1 10 tcp 1040 ------- 0 1.0 8.0 13 20
d 0.356524 9 10 tcp 1040 ------- 0 1.0 8.0 13 20
d 0.356524 7 10 tcp 1040 ------- 0 1.0 8.0 13 20
d 0.356524 6 10 tcp 1040 ------- 0 1.0 8.0 13 20
d 0.356524 5 10 tcp 1040 ------- 0 1.0 8.0 13 20
d 0.356524 4 10 tcp 1040 ------- 0 1.0 8.0 13 20
d 0.356524 3 10 tcp 1040 ------- 0 1.0 8.0 13 20
d 0.356524 2 10 tcp 1040 ------- 0 1.0 8.0 13 20
d 0.356524 0 10 tcp 1040 ------- 0 1.0 8.0 13 20
r 0.357692 10 8 tcp 1040 ------- 0 1.0 8.0 11 18
h 0.357692 8 10 ack 40 ------- 0 8.0 1.0 11 26
+ 0.35886 8 10 ack 40 ------- 0 8.0 1.0 9 24
- 0.35886 8 10 ack 40 ------- 0 8.0 1.0 9 24
d 0.358864 9 10 ack 40 ------- 0 8.0 1.0 9 24
d 0.358864 7 10 ack 40 ------- 0 8.0 1.0 9 24
d 0.358864 6 10 ack 40 ------- 0 8.0 1.0 9 24
d 0.358864 5 10 ack 40 ------- 0 8.0 1.0 9 24
d 0.358864 4 10 ack 40 ------- 0 8.0 1.0 9 24
d 0.358864 3 10 ack 40 ------- 0 8.0 1.0 9 24
d 0.358864 2 10 ack 40 ------- 0 8.0 1.0 9 24
d 0.358864 0 10 ack 40 ------- 0 8.0 1.0 9 24
r 0.360032 10 1 ack 40 ------- 0 8.0 1.0 7 22
h 0.360032 1 10 tcp 1040 ------- 0 1.0 8.0 15 27
h 0.360032 1 10 tcp 1040 ------- 0 1.0 8.0 16 28
- 0.360936 1 10 tcp 1040 ------- 0 1.0 8.0 14 21
d 0.36094 9 10 tcp 1040 ------- 0 1.0 8.0 14 21
d 0.36094 7 10 tcp 1040 ------- 0 1.0 8.0 14 21
d 0.36094 6 10 tcp 1040 ------- 0 1.0 8.0 14 21
d 0.36094 5 10 tcp 1040 ------- 0 1.0 8.0 14 21
d 0.36094 4 10 tcp 1040 ------- 0 1.0 8.0 14 21
d 0.36094 3 10 tcp 1040 ------- 0 1.0 8.0 14 21
d 0.36094 2 10 tcp 1040 ------- 0 1.0 8.0 14 21
d 0.36094 0 10 tcp 1040 ------- 0 1.0 8.0 14 21
r 0.362108 10 8 tcp 1040 ------- 0 1.0 8.0 12 19
h 0.362108 8 10 ack 40 ------- 0 8.0 1.0 12 29
+ 0.363276 8 10 ack 40 ------- 0 8.0 1.0 10 25
- 0.363276 8 10 ack 40 ------- 0 8.0 1.0 10 25
d 0.36328 9 10 ack 40 ------- 0 8.0 1.0 10 25
d 0.36328 7 10 ack 40 ------- 0 8.0 1.0 10 25
d 0.36328 6 10 ack 40 ------- 0 8.0 1.0 10 25
d 0.36328 5 10 ack 40 ------- 0 8.0 1.0 10 25
d 0.36328 4 10 ack 40 ------- 0 8.0 1.0 10 25
d 0.36328 3 10 ack 40 ------- 0 8.0 1.0 10 25
d 0.36328 2 10 ack 40 ------- 0 8.0 1.0 10 25
d 0.36328 0 10 ack 40 ------- 0 8.0 1.0 10 25
r 0.364448 10 1 ack 40 ------- 0 8.0 1.0 8 23
h 0.364448 1 10 tcp 1040 ------- 0 1.0 8.0 17 30
h 0.364448 1 10 tcp 1040 ------- 0 1.0 8.0 18 31
r 0.366524 10 8 tcp 1040 ------- 0 1.0 8.0 13 20
h 0.366524 8 10 ack 40 ------- 0 8.0 1.0 13 32
+ 0.367692 8 10 ack 40 ------- 0 8.0 1.0 11 26
- 0.367692 8 10 ack 40 ------- 0 8.0 1.0 11 26
d 0.367696 9 10 ack 40 ------- 0 8.0 1.0 11 26
d 0.367696 7 10 ack 40 ------- 0 8.0 1.0 11 26
d 0.367696 6 10 ack 40 ------- 0 8.0 1.0 11 26
d 0.367696 5 10 ack 40 ------- 0 8.0 1.0 11 26
d 0.367696 4 10 ack 40 ------- 0 8.0 1.0 11 26
d 0.367696 3 10 ack 40 ------- 0 8.0 1.0 11 26
d 0.367696 2 10 ack 40 ------- 0 8.0 1.0 11 26
d 0.367696 0 10 ack 40 ------- 0 8.0 1.0 11 26
r 0.368864 10 1 ack 40 ------- 0 8.0 1.0 9 24
h 0.368864 1 10 tcp 1040 ------- 0 1.0 8.0 19 33
h 0.368864 1 10 tcp 1040 ------- 0 1.0 8.0 20 34
+ 0.370032 1 10 tcp 1040 ------- 0 1.0 8.0 15 27
- 0.370032 1 10 tcp 1040 ------- 0 1.0 8.0 15 27
+ 0.370032 1 10 tcp 1040 ------- 0 1.0 8.0 16 28
d 0.370036 9 10 tcp 1040 ------- 0 1.0 8.0 15 27
d 0.370036 7 10 tcp 1040 ------- 0 1.0 8.0 15 27
d 0.370036 6 10 tcp 1040 ------- 0 1.0 8.0 15 27
d 0.370036 5 10 tcp 1040 ------- 0 1.0 8.0 15 27
d 0.370036 4 10 tcp 1040 ------- 0 1.0 8.0 15 27
d 0.370036 3 10 tcp 1040 ------- 0 1.0 8.0 15 27
d 0.370036 2 10 tcp 1040 ------- 0 1.0 8.0 15 27
d 0.370036 0 10 tcp 1040 ------- 0 1.0 8.0 15 27
r 0.37094 10 8 tcp 1040 ------- 0 1.0 8.0 14 21
h 0.37094 8 10 ack 40 ------- 0 8.0 1.0 14 35
+ 0.372108 8 10 ack 40 ------- 0 8.0 1.0 12 29
- 0.372108 8 10 ack 40 ------- 0 8.0 1.0 12 29
d 0.372112 9 10 ack 40 ------- 0 8.0 1.0 12 29
d 0.372112 7 10 ack 40 ------- 0 8.0 1.0 12 29
d 0.372112 6 10 ack 40 ------- 0 8.0 1.0 12 29
d 0.372112 5 10 ack 40 ------- 0 8.0 1.0 12 29
d 0.372112 4 10 ack 40 ------- 0 8.0 1.0 12 29
d 0.372112 3 10 ack 40 ------- 0 8.0 1.0 12 29
d 0.372112 2 10 ack 40 ------- 0 8.0 1.0 12 29
d 0.372112 0 10 ack 40 ------- 0 8.0 1.0 12 29
r 0.37328 10 1 ack 40 ------- 0 8.0 1.0 10 25
h 0.37328 1 10 tcp 1040 ------- 0 1.0 8.0 21 36
h 0.37328 1 10 tcp 1040 ------- 0 1.0 8.0 22 37
+ 0.374448 1 10 tcp 1040 ------- 0 1.0 8.0 17 30
+ 0.374448 1 10 tcp 1040 ------- 0 1.0 8.0 18 31
- 0.374448 1 10 tcp 1040 ------- 0 1.0 8.0 16 28
d 0.374452 9 10 tcp 1040 ------- 0 1.0 8.0 16 28
d 0.374452 7 10 tcp 1040 ------- 0 1.0 8.0 16 28
d 0.374452 6 10 tcp 1040 ------- 0 1.0 8.0 16 28
d 0.374452 5 10 tcp 1040 ------- 0 1.0 8.0 16 28
d 0.374452 4 10 tcp 1040 ------- 0 1.0 8.0 16 28
d 0.374452 3 10 tcp 1040 ------- 0 1.0 8.0 16 28
d 0.374452 2 10 tcp 1040 ------- 0 1.0 8.0 16 28
d 0.374452 0 10 tcp 1040 ------- 0 1.0 8.0 16 28
+ 0.376524 8 10 ack 40 ------- 0 8.0 1.0 13 32
- 0.376524 8 10 ack 40 ------- 0 8.0 1.0 13 32
d 0.376528 9 10 ack 40 ------- 0 8.0 1.0 13 32
d 0.376528 7 10 ack 40 ------- 0 8.0 1.0 13 32
d 0.376528 6 10 ack 40 ------- 0 8.0 1.0 13 32
d 0.376528 5 10 ack 40 ------- 0 8.0 1.0 13 32
d 0.376528 4 10 ack 40 ------- 0 8.0 1.0 13 32
d 0.376528 3 10 ack 40 ------- 0 8.0 1.0 13 32
d 0.376528 2 10 ack 40 ------- 0 8.0 1.0 13 32
d 0.376528 0 10 ack 40 ------- 0 8.0 1.0 13 32
r 0.377696 10 1 ack 40 ------- 0 8.0 1.0 11 26
h 0.377696 1 10 tcp 1040 ------- 0 1.0 8.0 23 38
h 0.377696 1 10 tcp 1040 ------- 0 1.0 8.0 24 39
+ 0.378864 1 10 tcp 1040 ------- 0 1.0 8.0 19 33
+ 0.378864 1 10 tcp 1040 ------- 0 1.0 8.0 20 34
- 0.378864 1 10 tcp 1040 ------- 0 1.0 8.0 17 30
d 0.378868 9 10 tcp 1040 ------- 0 1.0 8.0 17 30
d 0.378868 7 10 tcp 1040 ------- 0 1.0 8.0 17 30
d 0.378868 6 10 tcp 1040 ------- 0 1.0 8.0 17 30
d 0.378868 5 10 tcp 1040 ------- 0 1.0 8.0 17 30
d 0.378868 4 10 tcp 1040 ------- 0 1.0 8.0 17 30
d 0.378868 3 10 tcp 1040 ------- 0 1.0 8.0 17 30
d 0.378868 2 10 tcp 1040 ------- 0 1.0 8.0 17 30
d 0.378868 0 10 tcp 1040 ------- 0 1.0 8.0 17 30
r 0.380036 10 8 tcp 1040 ------- 0 1.0 8.0 15 27
h 0.380036 8 10 ack 40 ------- 0 8.0 1.0 15 40
+ 0.38094 8 10 ack 40 ------- 0 8.0 1.0 14 35
- 0.38094 8 10 ack 40 ------- 0 8.0 1.0 14 35
d 0.380944 9 10 ack 40 ------- 0 8.0 1.0 14 35
d 0.380944 7 10 ack 40 ------- 0 8.0 1.0 14 35
d 0.380944 6 10 ack 40 ------- 0 8.0 1.0 14 35
d 0.380944 5 10 ack 40 ------- 0 8.0 1.0 14 35
d 0.380944 4 10 ack 40 ------- 0 8.0 1.0 14 35
d 0.380944 3 10 ack 40 ------- 0 8.0 1.0 14 35
d 0.380944 2 10 ack 40 ------- 0 8.0 1.0 14 35
d 0.380944 0 10 ack 40 ------- 0 8.0 1.0 14 35
r 0.382112 10 1 ack 40 ------- 0 8.0 1.0 12 29
h 0.382112 1 10 tcp 1040 ------- 0 1.0 8.0 25 41
h 0.382112 1 10 tcp 1040 ------- 0 1.0 8.0 26 42
+ 0.38328 1 10 tcp 1040 ------- 0 1.0 8.0 21 36
+ 0.38328 1 10 tcp 1040 ------- 0 1.0 8.0 22 37
- 0.38328 1 10 tcp 1040 ------- 0 1.0 8.0 18 31
d 0.383284 9 10 tcp 1040 ------- 0 1.0 8.0 18 31
d 0.383284 7 10 tcp 1040 ------- 0 1.0 8.0 18 31
d 0.383284 6 10 tcp 1040 ------- 0 1.0 8.0 18 31
d 0.383284 5 10 tcp 1040 ------- 0 1.0 8.0 18 31
d 0.383284 4 10 tcp 1040 ------- 0 1.0 8.0 18 31
d 0.383284 3 10 tcp 1040 ------- 0 1.0 8.0 18 31
d 0.383284 2 10 tcp 1040 ------- 0 1.0 8.0 18 31
d 0.383284 0 10 tcp 1040 ------- 0 1.0 8.0 18 31
r 0.384452 10 8 tcp 1040 ------- 0 1.0 8.0 16 28
h 0.384452 8 10 ack 40 ------- 0 8.0 1.0 16 43
r 0.386528 10 1 ack 40 ------- 0 8.0 1.0 13 32
h 0.386528 1 10 tcp 1040 ------- 0 1.0 8.0 27 44
h 0.386528 1 10 tcp 1040 ------- 0 1.0 8.0 28 45
+ 0.387696 1 10 tcp 1040 ------- 0 1.0 8.0 23 38
+ 0.387696 1 10 tcp 1040 ------- 0 1.0 8.0 24 39
- 0.387696 1 10 tcp 1040 ------- 0 1.0 8.0 19 33
d 0.3877 9 10 tcp 1040 ------- 0 1.0 8.0 19 33
d 0.3877 7 10 tcp 1040 ------- 0 1.0 8.0 19 33
d 0.3877 6 10 tcp 1040 ------- 0 1.0 8.0 19 33
d 0.3877 5 10 tcp 1040 ------- 0 1.0 8.0 19 33
d 0.3877 4 10 tcp 1040 ------- 0 1.0 8.0 19 33
d 0.3877 3 10 tcp 1040 ------- 0 1.0 8.0 19 33
d 0.3877 2 10 tcp 1040 ------- 0 1.0 8.0 19 33
d 0.3877 0 10 tcp 1040 ------- 0 1.0 8.0 19 33
r 0.388868 10 8 tcp 1040 ------- 0 1.0 8.0 17 30
h 0.388868 8 10 ack 40 ------- 0 8.0 1.0 17 46
+ 0.390036 8 10 ack 40 ------- 0 8.0 1.0 15 40
- 0.390036 8 10 ack 40 ------- 0 8.0 1.0 15 40
d 0.39004 9 10 ack 40 ------- 0 8.0 1.0 15 40
d 0.39004 7 10 ack 40 ------- 0 8.0 1.0 15 40
d 0.39004 6 10 ack 40 ------- 0 8.0 1.0 15 40
d 0.39004 5 10 ack 40 ------- 0 8.0 1.0 15 40
d 0.39004 4 10 ack 40 ------- 0 8.0 1.0 15 40
d 0.39004 3 10 ack 40 ------- 0 8.0 1.0 15 40
d 0.39004 2 10 ack 40 ------- 0 8.0 1.0 15 40
d 0.39004 0 10 ack 40 ------- 0 8.0 1.0 15 40
r 0.390944 10 1 ack 40 ------- 0 8.0 1.0 14 35
h 0.390944 1 10 tcp 1040 ------- 0 1.0 8.0 29 47
h 0.390944 1 10 tcp 1040 ------- 0 1.0 8.0 30 48
+ 0.392112 1 10 tcp 1040 ------- 0 1.0 8.0 25 41
+ 0.392112 1 10 tcp 1040 ------- 0 1.0 8.0 26 42
- 0.392112 1 10 tcp 1040 ------- 0 1.0 8.0 20 34
d 0.392116 9 10 tcp 1040 ------- 0 1.0 8.0 20 34
d 0.392116 7 10 tcp 1040 ------- 0 1.0 8.0 20 34
d 0.392116 6 10 tcp 1040 ------- 0 1.0 8.0 20 34
d 0.392116 5 10 tcp 1040 ------- 0 1.0 8.0 20 34
d 0.392116 4 10 tcp 1040 ------- 0 1.0 8.0 20 34
d 0.392116 3 10 tcp 1040 ------- 0 1.0 8.0 20 34
d 0.392116 2 10 tcp 1040 ------- 0 1.0 8.0 20 34
d 0.392116 0 10 tcp 1040 ------- 0 1.0 8.0 20 34
r 0.393284 10 8 tcp 1040 ------- 0 1.0 8.0 18 31
h 0.393284 8 10 ack 40 ------- 0 8.0 1.0 18 49
+ 0.394452 8 10 ack 40 ------- 0 8.0 1.0 16 43
- 0.394452 8 10 ack 40 ------- 0 8.0 1.0 16 43
d 0.394456 9 10 ack 40 ------- 0 8.0 1.0 16 43
d 0.394456 7 10 ack 40 ------- 0 8.0 1.0 16 43
d 0.394456 6 10 ack 40 ------- 0 8.0 1.0 16 43
d 0.394456 5 10 ack 40 ------- 0 8.0 1.0 16 43
d 0.394456 4 10 ack 40 ------- 0 8.0 1.0 16 43
d 0.394456 3 10 ack 40 ------- 0 8.0 1.0 16 43
d 0.394456 2 10 ack 40 ------- 0 8.0 1.0 16 43
d 0.394456 0 10 ack 40 ------- 0 8.0 1.0 16 43
+ 0.396528 1 10 tcp 1040 ------- 0 1.0 8.0 27 44
+ 0.396528 1 10 tcp 1040 ------- 0 1.0 8.0 28 45
- 0.396528 1 10 tcp 1040 ------- 0 1.0 8.0 21 36
d 0.396532 9 10 tcp 1040 ------- 0 1.0 8.0 21 36
d 0.396532 7 10 tcp 1040 ------- 0 1.0 8.0 21 36
d 0.396532 6 10 tcp 1040 ------- 0 1.0 8.0 21 36
d 0.396532 5 10 tcp 1040 ------- 0 1.0 8.0 21 36
d 0.396532 4 10 tcp 1040 ------- 0 1.0 8.0 21 36
d 0.396532 3 10 tcp 1040 ------- 0 1.0 8.0 21 36
d 0.396532 2 10 tcp 1040 ------- 0 1.0 8.0 21 36
d 0.396532 0 10 tcp 1040 ------- 0 1.0 8.0 21 36
r 0.3977 10 8 tcp 1040 ------- 0 1.0 8.0 19 33
h 0.3977 8 10 ack 40 ------- 0 8.0 1.0 19 50
+ 0.398868 8 10 ack 40 ------- 0 8.0 1.0 17 46
- 0.398868 8 10 ack 40 ------- 0 8.0 1.0 17 46
d 0.398872 9 10 ack 40 ------- 0 8.0 1.0 17 46
d 0.398872 7 10 ack 40 ------- 0 8.0 1.0 17 46
d 0.398872 6 10 ack 40 ------- 0 8.0 1.0 17 46
d 0.398872 5 10 ack 40 ------- 0 8.0 1.0 17 46
d 0.398872 4 10 ack 40 ------- 0 8.0 1.0 17 46
d 0.398872 3 10 ack 40 ------- 0 8.0 1.0 17 46
d 0.398872 2 10 ack 40 ------- 0 8.0 1.0 17 46
d 0.398872 0 10 ack 40 ------- 0 8.0 1.0 17 46
r 0.40004 10 1 ack 40 ------- 0 8.0 1.0 15 40
h 0.40004 1 10 tcp 1040 ------- 0 1.0 8.0 31 51
h 0.40004 1 10 tcp 1040 ------- 0 1.0 8.0 32 52
+ 0.400944 1 10 tcp 1040 ------- 0 1.0 8.0 29 47
+ 0.400944 1 10 tcp 1040 ------- 0 1.0 8.0 30 48
- 0.400944 1 10 tcp 1040 ------- 0 1.0 8.0 22 37
d 0.400948 9 10 tcp 1040 ------- 0 1.0 8.0 22 37
d 0.400948 7 10 tcp 1040 ------- 0 1.0 8.0 22 37
d 0.400948 6 10 tcp 1040 ------- 0 1.0 8.0 22 37
d 0.400948 5 10 tcp 1040 ------- 0 1.0 8.0 22 37
d 0.400948 4 10 tcp 1040 ------- 0 1.0 8.0 22 37
d 0.400948 3 10 tcp 1040 ------- 0 1.0 8.0 22 37
d 0.400948 2 10 tcp 1040 ------- 0 1.0 8.0 22 37
d 0.400948 0 10 tcp 1040 ------- 0 1.0 8.0 22 37
r 0.402116 10 8 tcp 1040 ------- 0 1.0 8.0 20 34
h 0.402116 8 10 ack 40 ------- 0 8.0 1.0 20 53
+ 0.403284 8 10 ack 40 ------- 0 8.0 1.0 18 49
- 0.403284 8 10 ack 40 ------- 0 8.0 1.0 18 49
d 0.403288 9 10 ack 40 ------- 0 8.0 1.0 18 49
d 0.403288 7 10 ack 40 ------- 0 8.0 1.0 18 49
d 0.403288 6 10 ack 40 ------- 0 8.0 1.0 18 49
d 0.403288 5 10 ack 40 ------- 0 8.0 1.0 18 49
d 0.403288 4 10 ack 40 ------- 0 8.0 1.0 18 49
d 0.403288 3 10 ack 40 ------- 0 8.0 1.0 18 49
d 0.403288 2 10 ack 40 ------- 0 8.0 1.0 18 49
d 0.403288 0 10 ack 40 ------- 0 8.0 1.0 18 49
r 0.404456 10 1 ack 40 ------- 0 8.0 1.0 16 43
h 0.404456 1 10 tcp 1040 ------- 0 1.0 8.0 33 54
h 0.404456 1 10 tcp 1040 ------- 0 1.0 8.0 34 55
- 0.40536 1 10 tcp 1040 ------- 0 1.0 8.0 23 38
d 0.405364 9 10 tcp 1040 ------- 0 1.0 8.0 23 38
d 0.405364 7 10 tcp 1040 ------- 0 1.0 8.0 23 38
d 0.405364 6 10 tcp 1040 ------- 0 1.0 8.0 23 38
d 0.405364 5 10 tcp 1040 ------- 0 1.0 8.0 23 38
d 0.405364 4 10 tcp 1040 ------- 0 1.0 8.0 23 38
d 0.405364 3 10 tcp 1040 ------- 0 1.0 8.0 23 38
d 0.405364 2 10 tcp 1040 ------- 0 1.0 8.0 23 38
d 0.405364 0 10 tcp 1040 ------- 0 1.0 8.0 23 38
r 0.406532 10 8 tcp 1040 ------- 0 1.0 8.0 21 36
h 0.406532 8 10 ack 40 ------- 0 8.0 1.0 21 56
+ 0.4077 8 10 ack 40 ------- 0 8.0 1.0 19 50
- 0.4077 8 10 ack 40 ------- 0 8.0 1.0 19 50
d 0.407704 9 10 ack 40 ------- 0 8.0 1.0 19 50
d 0.407704 7 10 ack 40 ------- 0 8.0 1.0 19 50
d 0.407704 6 10 ack 40 ------- 0 8.0 1.0 19 50
d 0.407704 5 10 ack 40 ------- 0 8.0 1.0 19 50
d 0.407704 4 10 ack 40 ------- 0 8.0 1.0 19 50
d 0.407704 3 10 ack 40 ------- 0 8.0 1.0 19 50
d 0.407704 2 10 ack 40 ------- 0 8.0 1.0 19 50
d 0.407704 0 10 ack 40 ------- 0 8.0 1.0 19 50
r 0.408872 10 1 ack 40 ------- 0 8.0 1.0 17 46
h 0.408872 1 10 tcp 1040 ------- 0 1.0 8.0 35 57
h 0.408872 1 10 tcp 1040 ------- 0 1.0 8.0 36 58
- 0.409776 1 10 tcp 1040 ------- 0 1.0 8.0 24 39
d 0.40978 9 10 tcp 1040 ------- 0 1.0 8.0 24 39
d 0.40978 7 10 tcp 1040 ------- 0 1.0 8.0 24 39
d 0.40978 6 10 tcp 1040 ------- 0 1.0 8.0 24 39
d 0.40978 5 10 tcp 1040 ------- 0 1.0 8.0 24 39
d 0.40978 4 10 tcp 1040 ------- 0 1.0 8.0 24 39
d 0.40978 3 10 tcp 1040 ------- 0 1.0 8.0 24 39
d 0.40978 2 10 tcp 1040 ------- 0 1.0 8.0 24 39
d 0.40978 0 10 tcp 1040 ------- 0 1.0 8.0 24 39
+ 0.41004 1 10 tcp 1040 ------- 0 1.0 8.0 31 51
+ 0.41004 1 10 tcp 1040 ------- 0 1.0 8.0 32 52
r 0.410948 10 8 tcp 1040 ------- 0 1.0 8.0 22 37
h 0.410948 8 10 ack 40 ------- 0 8.0 1.0 22 59
+ 0.412116 8 10 ack 40 ------- 0 8.0 1.0 20 53
- 0.412116 8 10 ack 40 ------- 0 8.0 1.0 20 53
d 0.41212 9 10 ack 40 ------- 0 8.0 1.0 20 53
d 0.41212 7 10 ack 40 ------- 0 8.0 1.0 20 53
d 0.41212 6 10 ack 40 ------- 0 8.0 1.0 20 53
d 0.41212 5 10 ack 40 ------- 0 8.0 1.0 20 53
d 0.41212 4 10 ack 40 ------- 0 8.0 1.0 20 53
d 0.41212 3 10 ack 40 ------- 0 8.0 1.0 20 53
d 0.41212 2 10 ack 40 ------- 0 8.0 1.0 20 53
d 0.41212 0 10 ack 40 ------- 0 8.0 1.0 20 53
r 0.413288 10 1 ack 40 ------- 0 8.0 1.0 18 49
h 0.413288 1 10 tcp 1040 ------- 0 1.0 8.0 37 60
h 0.413288 1 10 tcp 1040 ------- 0 1.0 8.0 38 61
- 0.414192 1 10 tcp 1040 ------- 0 1.0 8.0 25 41
d 0.414196 9 10 tcp 1040 ------- 0 1.0 8.0 25 41
d 0.414196 7 10 tcp 1040 ------- 0 1.0 8.0 25 41
d 0.414196 6 10 tcp 1040 ------- 0 1.0 8.0 25 41
d 0.414196 5 10 tcp 1040 ------- 0 1.0 8.0 25 41
d 0.414196 4 10 tcp 1040 ------- 0 1.0 8.0 25 41
d 0.414196 3 10 tcp 1040 ------- 0 1.0 8.0 25 41
d 0.414196 2 10 tcp 1040 ------- 0 1.0 8.0 25 41
d 0.414196 0 10 tcp 1040 ------- 0 1.0 8.0 25 41
+ 0.414456 1 10 tcp 1040 ------- 0 1.0 8.0 33 54
+ 0.414456 1 10 tcp 1040 ------- 0 1.0 8.0 34 55
r 0.415364 10 8 tcp 1040 ------- 0 1.0 8.0 23 38
h 0.415364 8 10 ack 40 ------- 0 8.0 1.0 23 62
+ 0.416532 8 10 ack 40 ------- 0 8.0 1.0 21 56
- 0.416532 8 10 ack 40 ------- 0 8.0 1.0 21 56
d 0.416536 9 10 ack 40 ------- 0 8.0 1.0 21 56
d 0.416536 7 10 ack 40 ------- 0 8.0 1.0 21 56
d 0.416536 6 10 ack 40 ------- 0 8.0 1.0 21 56
d 0.416536 5 10 ack 40 ------- 0 8.0 1.0 21 56
d 0.416536 4 10 ack 40 ------- 0 8.0 1.0 21 56
d 0.416536 3 10 ack 40 ------- 0 8.0 1.0 21 56
d 0.416536 2 10 ack 40 ------- 0 8.0 1.0 21 56
d 0.416536 0 10 ack 40 ------- 0 8.0 1.0 21 56
r 0.417704 10 1 ack 40 ------- 0 8.0 1.0 19 50
h 0.417704 1 10 tcp 1040 ------- 0 1.0 8.0 39 63
- 0.418608 1 10 tcp 1040 ------- 0 1.0 8.0 26 42
d 0.418612 9 10 tcp 1040 ------- 0 1.0 8.0 26 42
d 0.418612 7 10 tcp 1040 ------- 0 1.0 8.0 26 42
d 0.418612 6 10 tcp 1040 ------- 0 1.0 8.0 26 42
d 0.418612 5 10 tcp 1040 ------- 0 1.0 8.0 26 42
d 0.418612 4 10 tcp 1040 ------- 0 1.0 8.0 26 42
d 0.418612 3 10 tcp 1040 ------- 0 1.0 8.0 26 42
d 0.418612 2 10 tcp 1040 ------- 0 1.0 8.0 26 42
d 0.418612 0 10 tcp 1040 ------- 0 1.0 8.0 26 42
+ 0.418872 1 10 tcp 1040 ------- 0 1.0 8.0 35 57
+ 0.418872 1 10 tcp 1040 ------- 0 1.0 8.0 36 58
r 0.41978 10 8 tcp 1040 ------- 0 1.0 8.0 24 39
h 0.41978 8 10 ack 40 ------- 0 8.0 1.0 24 64
+ 0.420948 8 10 ack 40 ------- 0 8.0 1.0 22 59
- 0.420948 8 10 ack 40 ------- 0 8.0 1.0 22 59
d 0.420952 9 10 ack 40 ------- 0 8.0 1.0 22 59
d 0.420952 7 10 ack 40 ------- 0 8.0 1.0 22 59
d 0.420952 6 10 ack 40 ------- 0 8.0 1.0 22 59
d 0.420952 5 10 ack 40 ------- 0 8.0 1.0 22 59
d 0.420952 4 10 ack 40 ------- 0 8.0 1.0 22 59
d 0.420952 3 10 ack 40 ------- 0 8.0 1.0 22 59
d 0.420952 2 10 ack 40 ------- 0 8.0 1.0 22 59
d 0.420952 0 10 ack 40 ------- 0 8.0 1.0 22 59
r 0.42212 10 1 ack 40 ------- 0 8.0 1.0 20 53
h 0.42212 1 10 tcp 1040 ------- 0 1.0 8.0 40 65
- 0.423024 1 10 tcp 1040 ------- 0 1.0 8.0 27 44
d 0.423028 9 10 tcp 1040 ------- 0 1.0 8.0 27 44
d 0.423028 7 10 tcp 1040 ------- 0 1.0 8.0 27 44
d 0.423028 6 10 tcp 1040 ------- 0 1.0 8.0 27 44
d 0.423028 5 10 tcp 1040 ------- 0 1.0 8.0 27 44
d 0.423028 4 10 tcp 1040 ------- 0 1.0 8.0 27 44
d 0.423028 3 10 tcp 1040 ------- 0 1.0 8.0 27 44
d 0.423028 2 10 tcp 1040 ------- 0 1.0 8.0 27 44
d 0.423028 0 10 tcp 1040 ------- 0 1.0 8.0 27 44
+ 0.423288 1 10 tcp 1040 ------- 0 1.0 8.0 37 60
+ 0.423288 1 10 tcp 1040 ------- 0 1.0 8.0 38 61
r 0.424196 10 8 tcp 1040 ------- 0 1.0 8.0 25 41