V -t * -v 1.0a5 -a 0
A -t * -n 1 -p 0 -o 0x7fffffff -c 30 -a 1
A -t * -h 1 -m 1073741823 -s 0
n -t * -a 4 -s 4 -S UP -v circle -c black -i black
n -t * -a 0 -s 0 -S UP -v circle -c black -i black
n -t * -a 1 -s 1 -S UP -v circle -c black -i black
n -t * -a 2 -s 2 -S UP -v circle -c black -i black
n -t * -a 3 -s 3 -S UP -v circle -c black -i black
l -t * -s 2 -d 0 -S UP -r 10000000 -D 0.01 -c black
l -t * -s 3 -d 0 -S UP -r 10000000 -D 0.01 -c black
l -t * -s 4 -d 0 -S UP -r 10000000 -D 0.01 -c black
l -t * -s 0 -d 1 -S UP -r 700000 -D 0.01 -c black
+ -t 1.2 -s 2 -d 0 -p tcp -e 40 -c 0 -i 0 -a 0 -x {2.0 1.0 0 ------- null}
- -t 1.2 -s 2 -d 0 -p tcp -e 40 -c 0 -i 0 -a 0 -x {2.0 1.0 0 ------- null}
h -t 1.2 -s 2 -d 0 -p tcp -e 40 -c 0 -i 0 -a 0 -x {2.0 1.0 -1 ------- null}
+ -t 1.2 -s 3 -d 0 -p tcp -e 40 -c 0 -i 1 -a 0 -x {3.0 1.1 0 ------- null}
- -t 1.2 -s 3 -d 0 -p tcp -e 40 -c 0 -i 1 -a 0 -x {3.0 1.1 0 ------- null}
h -t 1.2 -s 3 -d 0 -p tcp -e 40 -c 0 -i 1 -a 0 -x {3.0 1.1 -1 ------- null}
+ -t 1.2 -s 4 -d 0 -p tcp -e 40 -c 0 -i 2 -a 0 -x {4.0 1.2 0 ------- null}
- -t 1.2 -s 4 -d 0 -p tcp -e 40 -c 0 -i 2 -a 0 -x {4.0 1.2 0 ------- null}
h -t 1.2 -s 4 -d 0 -p tcp -e 40 -c 0 -i 2 -a 0 -x {4.0 1.2 -1 ------- null}
r -t 1.210032 -s 2 -d 0 -p tcp -e 40 -c 0 -i 0 -a 0 -x {2.0 1.0 0 ------- null}
+ -t 1.210032 -s 0 -d 1 -p tcp -e 40 -c 0 -i 0 -a 0 -x {2.0 1.0 0 ------- null}
- -t 1.210032 -s 0 -d 1 -p tcp -e 40 -c 0 -i 0 -a 0 -x {2.0 1.0 0 ------- null}
h -t 1.210032 -s 0 -d 1 -p tcp -e 40 -c 0 -i 0 -a 0 -x {2.0 1.0 -1 ------- null}
r -t 1.210032 -s 3 -d 0 -p tcp -e 40 -c 0 -i 1 -a 0 -x {3.0 1.1 0 ------- null}
+ -t 1.210032 -s 0 -d 1 -p tcp -e 40 -c 0 -i 1 -a 0 -x {3.0 1.1 0 ------- null}
r -t 1.210032 -s 4 -d 0 -p tcp -e 40 -c 0 -i 2 -a 0 -x {4.0 1.2 0 ------- null}
+ -t 1.210032 -s 0 -d 1 -p tcp -e 40 -c 0 -i 2 -a 0 -x {4.0 1.2 0 ------- null}
- -t 1.21048914285714 -s 0 -d 1 -p tcp -e 40 -c 0 -i 1 -a 0 -x {3.0 1.1 0 ------- null}
h -t 1.21048914285714 -s 0 -d 1 -p tcp -e 40 -c 0 -i 1 -a 0 -x {3.0 1.1 -1 ------- null}
- -t 1.21094628571429 -s 0 -d 1 -p tcp -e 40 -c 0 -i 2 -a 0 -x {4.0 1.2 0 ------- null}
h -t 1.21094628571429 -s 0 -d 1 -p tcp -e 40 -c 0 -i 2 -a 0 -x {4.0 1.2 -1 ------- null}
r -t 1.22048914285714 -s 0 -d 1 -p tcp -e 40 -c 0 -i 0 -a 0 -x {2.0 1.0 0 ------- null}
+ -t 1.22048914285714 -s 1 -d 0 -p ack -e 40 -c 0 -i 3 -a 0 -x {1.0 2.0 0 ------- null}
- -t 1.22048914285714 -s 1 -d 0 -p ack -e 40 -c 0 -i 3 -a 0 -x {1.0 2.0 0 ------- null}
h -t 1.22048914285714 -s 1 -d 0 -p ack -e 40 -c 0 -i 3 -a 0 -x {1.0 2.0 -1 ------- null}
r -t 1.22094628571429 -s 0 -d 1 -p tcp -e 40 -c 0 -i 1 -a 0 -x {3.0 1.1 0 ------- null}
+ -t 1.22094628571429 -s 1 -d 0 -p ack -e 40 -c 0 -i 4 -a 0 -x {1.1 3.0 0 ------- null}
- -t 1.22094628571429 -s 1 -d 0 -p ack -e 40 -c 0 -i 4 -a 0 -x {1.1 3.0 0 ------- null}
h -t 1.22094628571429 -s 1 -d 0 -p ack -e 40 -c 0 -i 4 -a 0 -x {1.1 3.0 -1 ------- null}
r -t 1.22140342857143 -s 0 -d 1 -p tcp -e 40 -c 0 -i 2 -a 0 -x {4.0 1.2 0 ------- null}
+ -t 1.22140342857143 -s 1 -d 0 -p ack -e 40 -c 0 -i 5 -a 0 -x {1.2 4.0 0 ------- null}
- -t 1.22140342857143 -s 1 -d 0 -p ack -e 40 -c 0 -i 5 -a 0 -x {1.2 4.0 0 ------- null}
h -t 1.22140342857143 -s 1 -d 0 -p ack -e 40 -c 0 -i 5 -a 0 -x {1.2 4.0 -1 ------- null}
r -t 1.23094628571429 -s 1 -d 0 -p ack -e 40 -c 0 -i 3 -a 0 -x {1.0 2.0 0 ------- null}
+ -t 1.23094628571429 -s 0 -d 2 -p ack -e 40 -c 0 -i 3 -a 0 -x {1.0 2.0 0 ------- null}
- -t 1.23094628571429 -s 0 -d 2 -p ack -e 40 -c 0 -i 3 -a 0 -x {1.0 2.0 0 ------- null}
h -t 1.23094628571429 -s 0 -d 2 -p ack -e 40 -c 0 -i 3 -a 0 -x {1.0 2.0 -1 ------- null}
r -t 1.23140342857143 -s 1 -d 0 -p ack -e 40 -c 0 -i 4 -a 0 -x {1.1 3.0 0 ------- null}
+ -t 1.23140342857143 -s 0 -d 3 -p ack -e 40 -c 0 -i 4 -a 0 -x {1.1 3.0 0 ------- null}
- -t 1.23140342857143 -s 0 -d 3 -p ack -e 40 -c 0 -i 4 -a 0 -x {1.1 3.0 0 ------- null}
h -t 1.23140342857143 -s 0 -d 3 -p ack -e 40 -c 0 -i 4 -a 0 -x {1.1 3.0 -1 ------- null}
r -t 1.23186057142857 -s 1 -d 0 -p ack -e 40 -c 0 -i 5 -a 0 -x {1.2 4.0 0 ------- null}
+ -t 1.23186057142857 -s 0 -d 4 -p ack -e 40 -c 0 -i 5 -a 0 -x {1.2 4.0 0 ------- null}
- -t 1.23186057142857 -s 0 -d 4 -p ack -e 40 -c 0 -i 5 -a 0 -x {1.2 4.0 0 ------- null}
h -t 1.23186057142857 -s 0 -d 4 -p ack -e 40 -c 0 -i 5 -a 0 -x {1.2 4.0 -1 ------- null}
r -t 1.24097828571429 -s 0 -d 2 -p ack -e 40 -c 0 -i 3 -a 0 -x {1.0 2.0 0 ------- null}
+ -t 1.24097828571429 -s 2 -d 0 -p tcp -e 1040 -c 0 -i 6 -a 0 -x {2.0 1.0 1 ------- null}
- -t 1.24097828571429 -s 2 -d 0 -p tcp -e 1040 -c 0 -i 6 -a 0 -x {2.0 1.0 1 ------- null}
h -t 1.24097828571429 -s 2 -d 0 -p tcp -e 1040 -c 0 -i 6 -a 0 -x {2.0 1.0 -1 ------- null}
+ -t 1.24097828571429 -s 2 -d 0 -p tcp -e 1040 -c 0 -i 7 -a 0 -x {2.0 1.0 2 ------- null}
r -t 1.24143542857143 -s 0 -d 3 -p ack -e 40 -c 0 -i 4 -a 0 -x {1.1 3.0 0 ------- null}
+ -t 1.24143542857143 -s 3 -d 0 -p tcp -e 1040 -c 0 -i 8 -a 0 -x {3.0 1.1 1 ------- null}
- -t 1.24143542857143 -s 3 -d 0 -p tcp -e 1040 -c 0 -i 8 -a 0 -x {3.0 1.1 1 ------- null}
h -t 1.24143542857143 -s 3 -d 0 -p tcp -e 1040 -c 0 -i 8 -a 0 -x {3.0 1.1 -1 ------- null}
+ -t 1.24143542857143 -s 3 -d 0 -p tcp -e 1040 -c 0 -i 9 -a 0 -x {3.0 1.1 2 ------- null}
- -t 1.24181028571429 -s 2 -d 0 -p tcp -e 1040 -c 0 -i 7 -a 0 -x {2.0 1.0 2 ------- null}
h -t 1.24181028571429 -s 2 -d 0 -p tcp -e 1040 -c 0 -i 7 -a 0 -x {2.0 1.0 -1 ------- null}
r -t 1.24189257142857 -s 0 -d 4 -p ack -e 40 -c 0 -i 5 -a 0 -x {1.2 4.0 0 ------- null}
+ -t 1.24189257142857 -s 4 -d 0 -p tcp -e 1040 -c 0 -i 10 -a 0 -x {4.0 1.2 1 ------- null}
- -t 1.24189257142857 -s 4 -d 0 -p tcp -e 1040 -c 0 -i 10 -a 0 -x {4.0 1.2 1 ------- null}
h -t 1.24189257142857 -s 4 -d 0 -p tcp -e 1040 -c 0 -i 10 -a 0 -x {4.0 1.2 -1 ------- null}
+ -t 1.24189257142857 -s 4 -d 0 -p tcp -e 1040 -c 0 -i 11 -a 0 -x {4.0 1.2 2 ------- null}
- -t 1.24226742857143 -s 3 -d 0 -p tcp -e 1040 -c 0 -i 9 -a 0 -x {3.0 1.1 2 ------- null}
h -t 1.24226742857143 -s 3 -d 0 -p tcp -e 1040 -c 0 -i 9 -a 0 -x {3.0 1.1 -1 ------- null}
- -t 1.24272457142857 -s 4 -d 0 -p tcp -e 1040 -c 0 -i 11 -a 0 -x {4.0 1.2 2 ------- null}
h -t 1.24272457142857 -s 4 -d 0 -p tcp -e 1040 -c 0 -i 11 -a 0 -x {4.0 1.2 -1 ------- null}
r -t 1.25181028571429 -s 2 -d 0 -p tcp -e 1040 -c 0 -i 6 -a 0 -x {2.0 1.0 1 ------- null}
+ -t 1.25181028571429 -s 0 -d 1 -p tcp -e 1040 -c 0 -i 6 -a 0 -x {2.0 1.0 1 ------- null}
- -t 1.25181028571429 -s 0 -d 1 -p tcp -e 1040 -c 0 -i 6 -a 0 -x {2.0 1.0 1 ------- null}
h -t 1.25181028571429 -s 0 -d 1 -p tcp -e 1040 -c 0 -i 6 -a 0 -x {2.0 1.0 -1 ------- null}
r -t 1.25226742857143 -s 3 -d 0 -p tcp -e 1040 -c 0 -i 8 -a 0 -x {3.0 1.1 1 ------- null}
+ -t 1.25226742857143 -s 0 -d 1 -p tcp -e 1040 -c 0 -i 8 -a 0 -x {3.0 1.1 1 ------- null}
r -t 1.25264228571429 -s 2 -d 0 -p tcp -e 1040 -c 0 -i 7 -a 0 -x {2.0 1.0 2 ------- null}
+ -t 1.25264228571429 -s 0 -d 1 -p tcp -e 1040 -c 0 -i 7 -a 0 -x {2.0 1.0 2 ------- null}
r -t 1.25272457142857 -s 4 -d 0 -p tcp -e 1040 -c 0 -i 10 -a 0 -x {4.0 1.2 1 ------- null}
+ -t 1.25272457142857 -s 0 -d 1 -p tcp -e 1040 -c 0 -i 10 -a 0 -x {4.0 1.2 1 ------- null}
r -t 1.25309942857143 -s 3 -d 0 -p tcp -e 1040 -c 0 -i 9 -a 0 -x {3.0 1.1 2 ------- null}
+ -t 1.25309942857143 -s 0 -d 1 -p tcp -e 1040 -c 0 -i 9 -a 0 -x {3.0 1.1 2 ------- null}
r -t 1.25355657142857 -s 4 -d 0 -p tcp -e 1040 -c 0 -i 11 -a 0 -x {4.0 1.2 2 ------- null}
+ -t 1.25355657142857 -s 0 -d 1 -p tcp -e 1040 -c 0 -i 11 -a 0 -x {4.0 1.2 2 ------- null}
- -t 1.263696 -s 0 -d 1 -p tcp -e 1040 -c 0 -i 8 -a 0 -x {3.0 1.1 1 ------- null}
h -t 1.263696 -s 0 -d 1 -p tcp -e 1040 -c 0 -i 8 -a 0 -x {3.0 1.1 -1 ------- null}
r -t 1.273696 -s 0 -d 1 -p tcp -e 1040 -c 0 -i 6 -a 0 -x {2.0 1.0 1 ------- null}
+ -t 1.273696 -s 1 -d 0 -p ack -e 40 -c 0 -i 12 -a 0 -x {1.0 2.0 1 ------- null}
- -t 1.273696 -s 1 -d 0 -p ack -e 40 -c 0 -i 12 -a 0 -x {1.0 2.0 1 ------- null}
h -t 1.273696 -s 1 -d 0 -p ack -e 40 -c 0 -i 12 -a 0 -x {1.0 2.0 -1 ------- null}
- -t 1.27558171428571 -s 0 -d 1 -p tcp -e 1040 -c 0 -i 7 -a 0 -x {2.0 1.0 2 ------- null}
h -t 1.27558171428571 -s 0 -d 1 -p tcp -e 1040 -c 0 -i 7 -a 0 -x {2.0 1.0 -1 ------- null}
r -t 1.28415314285714 -s 1 -d 0 -p ack -e 40 -c 0 -i 12 -a 0 -x {1.0 2.0 1 ------- null}
+ -t 1.28415314285714 -s 0 -d 2 -p ack -e 40 -c 0 -i 12 -a 0 -x {1.0 2.0 1 ------- null}
- -t 1.28415314285714 -s 0 -d 2 -p ack -e 40 -c 0 -i 12 -a 0 -x {1.0 2.0 1 ------- null}
h -t 1.28415314285714 -s 0 -d 2 -p ack -e 40 -c 0 -i 12 -a 0 -x {1.0 2.0 -1 ------- null}
r -t 1.28558171428571 -s 0 -d 1 -p tcp -e 1040 -c 0 -i 8 -a 0 -x {3.0 1.1 1 ------- null}
+ -t 1.28558171428571 -s 1 -d 0 -p ack -e 40 -c 0 -i 13 -a 0 -x {1.1 3.0 1 ------- null}
- -t 1.28558171428571 -s 1 -d 0 -p ack -e 40 -c 0 -i 13 -a 0 -x {1.1 3.0 1 ------- null}
h -t 1.28558171428571 -s 1 -d 0 -p ack -e 40 -c 0 -i 13 -a 0 -x {1.1 3.0 -1 ------- null}
- -t 1.28746742857143 -s 0 -d 1 -p tcp -e 1040 -c 0 -i 10 -a 0 -x {4.0 1.2 1 ------- null}
h -t 1.28746742857143 -s 0 -d 1 -p tcp -e 1040 -c 0 -i 10 -a 0 -x {4.0 1.2 -1 ------- null}
r -t 1.29418514285714 -s 0 -d 2 -p ack -e 40 -c 0 -i 12 -a 0 -x {1.0 2.0 1 ------- null}
+ -t 1.29418514285714 -s 2 -d 0 -p tcp -e 1040 -c 0 -i 14 -a 0 -x {2.0 1.0 3 ------- null}
- -t 1.29418514285714 -s 2 -d 0 -p tcp -e 1040 -c 0 -i 14 -a 0 -x {2.0 1.0 3 ------- null}
h -t 1.29418514285714 -s 2 -d 0 -p tcp -e 1040 -c 0 -i 14 -a 0 -x {2.0 1.0 -1 ------- null}
+ -t 1.29418514285714 -s 2 -d 0 -p tcp -e 1040 -c 0 -i 15 -a 0 -x {2.0 1.0 4 ------- null}
- -t 1.29501714285714 -s 2 -d 0 -p tcp -e 1040 -c 0 -i 15 -a 0 -x {2.0 1.0 4 ------- null}
h -t 1.29501714285714 -s 2 -d 0 -p tcp -e 1040 -c 0 -i 15 -a 0 -x {2.0 1.0 -1 ------- null}
r -t 1.29603885714286 -s 1 -d 0 -p ack -e 40 -c 0 -i 13 -a 0 -x {1.1 3.0 1 ------- null}
+ -t 1.29603885714286 -s 0 -d 3 -p ack -e 40 -c 0 -i 13 -a 0 -x {1.1 3.0 1 ------- null}
- -t 1.29603885714286 -s 0 -d 3 -p ack -e 40 -c 0 -i 13 -a 0 -x {1.1 3.0 1 ------- null}
h -t 1.29603885714286 -s 0 -d 3 -p ack -e 40 -c 0 -i 13 -a 0 -x {1.1 3.0 -1 ------- null}
r -t 1.29746742857143 -s 0 -d 1 -p tcp -e 1040 -c 0 -i 7 -a 0 -x {2.0 1.0 2 ------- null}
+ -t 1.29746742857143 -s 1 -d 0 -p ack -e 40 -c 0 -i 16 -a 0 -x {1.0 2.0 2 ------- null}
- -t 1.29746742857143 -s 1 -d 0 -p ack -e 40 -c 0 -i 16 -a 0 -x {1.0 2.0 2 ------- null}
h -t 1.29746742857143 -s 1 -d 0 -p ack -e 40 -c 0 -i 16 -a 0 -x {1.0 2.0 -1 ------- null}
- -t 1.29935314285714 -s 0 -d 1 -p tcp -e 1040 -c 0 -i 9 -a 0 -x {3.0 1.1 2 ------- null}
h -t 1.29935314285714 -s 0 -d 1 -p tcp -e 1040 -c 0 -i 9 -a 0 -x {3.0 1.1 -1 ------- null}
r -t 1.30501714285714 -s 2 -d 0 -p tcp -e 1040 -c 0 -i 14 -a 0 -x {2.0 1.0 3 ------- null}
+ -t 1.30501714285714 -s 0 -d 1 -p tcp -e 1040 -c 0 -i 14 -a 0 -x {2.0 1.0 3 ------- null}
r -t 1.30584914285714 -s 2 -d 0 -p tcp -e 1040 -c 0 -i 15 -a 0 -x {2.0 1.0 4 ------- null}
+ -t 1.30584914285714 -s 0 -d 1 -p tcp -e 1040 -c 0 -i 15 -a 0 -x {2.0 1.0 4 ------- null}
r -t 1.30607085714286 -s 0 -d 3 -p ack -e 40 -c 0 -i 13 -a 0 -x {1.1 3.0 1 ------- null}
+ -t 1.30607085714286 -s 3 -d 0 -p tcp -e 1040 -c 0 -i 17 -a 0 -x {3.0 1.1 3 ------- null}
- -t 1.30607085714286 -s 3 -d 0 -p tcp -e 1040 -c 0 -i 17 -a 0 -x {3.0 1.1 3 ------- null}
h -t 1.30607085714286 -s 3 -d 0 -p tcp -e 1040 -c 0 -i 17 -a 0 -x {3.0 1.1 -1 ------- null}
+ -t 1.30607085714286 -s 3 -d 0 -p tcp -e 1040 -c 0 -i 18 -a 0 -x {3.0 1.1 4 ------- null}
- -t 1.30690285714286 -s 3 -d 0 -p tcp -e 1040 -c 0 -i 18 -a 0 -x {3.0 1.1 4 ------- null}
h -t 1.30690285714286 -s 3 -d 0 -p tcp -e 1040 -c 0 -i 18 -a 0 -x {3.0 1.1 -1 ------- null}
r -t 1.30792457142857 -s 1 -d 0 -p ack -e 40 -c 0 -i 16 -a 0 -x {1.0 2.0 2 ------- null}
+ -t 1.30792457142857 -s 0 -d 2 -p ack -e 40 -c 0 -i 16 -a 0 -x {1.0 2.0 2 ------- null}
- -t 1.30792457142857 -s 0 -d 2 -p ack -e 40 -c 0 -i 16 -a 0 -x {1.0 2.0 2 ------- null}
h -t 1.30792457142857 -s 0 -d 2 -p ack -e 40 -c 0 -i 16 -a 0 -x {1.0 2.0 -1 ------- null}
r -t 1.30935314285714 -s 0 -d 1 -p tcp -e 1040 -c 0 -i 10 -a 0 -x {4.0 1.2 1 ------- null}
+ -t 1.30935314285714 -s 1 -d 0 -p ack -e 40 -c 0 -i 19 -a 0 -x {1.2 4.0 1 ------- null}
- -t 1.30935314285714 -s 1 -d 0 -p ack -e 40 -c 0 -i 19 -a 0 -x {1.2 4.0 1 ------- null}
h -t 1.30935314285714 -s 1 -d 0 -p ack -e 40 -c 0 -i 19 -a 0 -x {1.2 4.0 -1 ------- null}
- -t 1.31123885714286 -s 0 -d 1 -p tcp -e 1040 -c 0 -i 11 -a 0 -x {4.0 1.2 2 ------- null}
h -t 1.31123885714286 -s 0 -d 1 -p tcp -e 1040 -c 0 -i 11 -a 0 -x {4.0 1.2 -1 ------- null}
r -t 1.31690285714286 -s 3 -d 0 -p tcp -e 1040 -c 0 -i 17 -a 0 -x {3.0 1.1 3 ------- null}
+ -t 1.31690285714286 -s 0 -d 1 -p tcp -e 1040 -c 0 -i 17 -a 0 -x {3.0 1.1 3 ------- null}
r -t 1.31773485714286 -s 3 -d 0 -p tcp -e 1040 -c 0 -i 18 -a 0 -x {3.0 1.1 4 ------- null}
+ -t 1.31773485714286 -s 0 -d 1 -p tcp -e 1040 -c 0 -i 18 -a 0 -x {3.0 1.1 4 ------- null}
r -t 1.31795657142857 -s 0 -d 2 -p ack -e 40 -c 0 -i 16 -a 0 -x {1.0 2.0 2 ------- null}
+ -t 1.31795657142857 -s 2 -d 0 -p tcp -e 1040 -c 0 -i 20 -a 0 -x {2.0 1.0 5 ------- null}
- -t 1.31795657142857 -s 2 -d 0 -p tcp -e 1040 -c 0 -i 20 -a 0 -x {2.0 1.0 5 ------- null}
h -t 1.31795657142857 -s 2 -d 0 -p tcp -e 1040 -c 0 -i 20 -a 0 -x {2.0 1.0 -1 ------- null}
+ -t 1.31795657142857 -s 2 -d 0 -p tcp -e 1040 -c 0 -i 21 -a 0 -x {2.0 1.0 6 ------- null}
- -t 1.31878857142857 -s 2 -d 0 -p tcp -e 1040 -c 0 -i 21 -a 0 -x {2.0 1.0 6 ------- null}
h -t 1.31878857142857 -s 2 -d 0 -p tcp -e 1040 -c 0 -i 21 -a 0 -x {2.0 1.0 -1 ------- null}
r -t 1.31981028571429 -s 1 -d 0 -p ack -e 40 -c 0 -i 19 -a 0 -x {1.2 4.0 1 ------- null}
+ -t 1.31981028571429 -s 0 -d 4 -p ack -e 40 -c 0 -i 19 -a 0 -x {1.2 4.0 1 ------- null}
- -t 1.31981028571429 -s 0 -d 4 -p ack -e 40 -c 0 -i 19 -a 0 -x {1.2 4.0 1 ------- null}
h -t 1.31981028571429 -s 0 -d 4 -p ack -e 40 -c 0 -i 19 -a 0 -x {1.2 4.0 -1 ------- null}
r -t 1.32123885714286 -s 0 -d 1 -p tcp -e 1040 -c 0 -i 9 -a 0 -x {3.0 1.1 2 ------- null}
+ -t 1.32123885714286 -s 1 -d 0 -p ack -e 40 -c 0 -i 22 -a 0 -x {1.1 3.0 2 ------- null}
- -t 1.32123885714286 -s 1 -d 0 -p ack -e 40 -c 0 -i 22 -a 0 -x {1.1 3.0 2 ------- null}
h -t 1.32123885714286 -s 1 -d 0 -p ack -e 40 -c 0 -i 22 -a 0 -x {1.1 3.0 -1 ------- null}
- -t 1.32312457142857 -s 0 -d 1 -p tcp -e 1040 -c 0 -i 14 -a 0 -x {2.0 1.0 3 ------- null}
h -t 1.32312457142857 -s 0 -d 1 -p tcp -e 1040 -c 0 -i 14 -a 0 -x {2.0 1.0 -1 ------- null}
r -t 1.32878857142857 -s 2 -d 0 -p tcp -e 1040 -c 0 -i 20 -a 0 -x {2.0 1.0 5 ------- null}
+ -t 1.32878857142857 -s 0 -d 1 -p tcp -e 1040 -c 0 -i 20 -a 0 -x {2.0 1.0 5 ------- null}
r -t 1.32962057142857 -s 2 -d 0 -p tcp -e 1040 -c 0 -i 21 -a 0 -x {2.0 1.0 6 ------- null}
+ -t 1.32962057142857 -s 0 -d 1 -p tcp -e 1040 -c 0 -i 21 -a 0 -x {2.0 1.0 6 ------- null}
r -t 1.32984228571429 -s 0 -d 4 -p ack -e 40 -c 0 -i 19 -a 0 -x {1.2 4.0 1 ------- null}
+ -t 1.32984228571429 -s 4 -d 0 -p tcp -e 1040 -c 0 -i 23 -a 0 -x {4.0 1.2 3 ------- null}
- -t 1.32984228571429 -s 4 -d 0 -p tcp -e 1040 -c 0 -i 23 -a 0 -x {4.0 1.2 3 ------- null}
h -t 1.32984228571429 -s 4 -d 0 -p tcp -e 1040 -c 0 -i 23 -a 0 -x {4.0 1.2 -1 ------- null}
+ -t 1.32984228571429 -s 4 -d 0 -p tcp -e 1040 -c 0 -i 24 -a 0 -x {4.0 1.2 4 ------- null}
- -t 1.33067428571429 -s 4 -d 0 -p tcp -e 1040 -c 0 -i 24 -a 0 -x {4.0 1.2 4 ------- null}
h -t 1.33067428571429 -s 4 -d 0 -p tcp -e 1040 -c 0 -i 24 -a 0 -x {4.0 1.2 -1 ------- null}
r -t 1.331696 -s 1 -d 0 -p ack -e 40 -c 0 -i 22 -a 0 -x {1.1 3.0 2 ------- null}
+ -t 1.331696 -s 0 -d 3 -p ack -e 40 -c 0 -i 22 -a 0 -x {1.1 3.0 2 ------- null}
- -t 1.331696 -s 0 -d 3 -p ack -e 40 -c 0 -i 22 -a 0 -x {1.1 3.0 2 ------- null}
h -t 1.331696 -s 0 -d 3 -p ack -e 40 -c 0 -i 22 -a 0 -x {1.1 3.0 -1 ------- null}
r -t 1.33312457142857 -s 0 -d 1 -p tcp -e 1040 -c 0 -i 11 -a 0 -x {4.0 1.2 2 ------- null}
+ -t 1.33312457142857 -s 1 -d 0 -p ack -e 40 -c 0 -i 25 -a 0 -x {1.2 4.0 2 ------- null}
- -t 1.33312457142857 -s 1 -d 0 -p ack -e 40 -c 0 -i 25 -a 0 -x {1.2 4.0 2 ------- null}
h -t 1.33312457142857 -s 1 -d 0 -p ack -e 40 -c 0 -i 25 -a 0 -x {1.2 4.0 -1 ------- null}
- -t 1.33501028571429 -s 0 -d 1 -p tcp -e 1040 -c 0 -i 15 -a 0 -x {2.0 1.0 4 ------- null}
h -t 1.33501028571429 -s 0 -d 1 -p tcp -e 1040 -c 0 -i 15 -a 0 -x {2.0 1.0 -1 ------- null}
r -t 1.34067428571429 -s 4 -d 0 -p tcp -e 1040 -c 0 -i 23 -a 0 -x {4.0 1.2 3 ------- null}
+ -t 1.34067428571429 -s 0 -d 1 -p tcp -e 1040 -c 0 -i 23 -a 0 -x {4.0 1.2 3 ------- null}
r -t 1.34150628571429 -s 4 -d 0 -p tcp -e 1040 -c 0 -i 24 -a 0 -x {4.0 1.2 4 ------- null}
+ -t 1.34150628571429 -s 0 -d 1 -p tcp -e 1040 -c 0 -i 24 -a 0 -x {4.0 1.2 4 ------- null}
r -t 1.341728 -s 0 -d 3 -p ack -e 40 -c 0 -i 22 -a 0 -x {1.1 3.0 2 ------- null}
+ -t 1.341728 -s 3 -d 0 -p tcp -e 1040 -c 0 -i 26 -a 0 -x {3.0 1.1 5 ------- null}
- -t 1.341728 -s 3 -d 0 -p tcp -e 1040 -c 0 -i 26 -a 0 -x {3.0 1.1 5 ------- null}
h -t 1.341728 -s 3 -d 0 -p tcp -e 1040 -c 0 -i 26 -a 0 -x {3.0 1.1 -1 ------- null}
+ -t 1.341728 -s 3 -d 0 -p tcp -e 1040 -c 0 -i 27 -a 0 -x {3.0 1.1 6 ------- null}
- -t 1.34256 -s 3 -d 0 -p tcp -e 1040 -c 0 -i 27 -a 0 -x {3.0 1.1 6 ------- null}
h -t 1.34256 -s 3 -d 0 -p tcp -e 1040 -c 0 -i 27 -a 0 -x {3.0 1.1 -1 ------- null}
r -t 1.34358171428571 -s 1 -d 0 -p ack -e 40 -c 0 -i 25 -a 0 -x {1.2 4.0 2 ------- null}
+ -t 1.34358171428571 -s 0 -d 4 -p ack -e 40 -c 0 -i 25 -a 0 -x {1.2 4.0 2 ------- null}
- -t 1.34358171428571 -s 0 -d 4 -p ack -e 40 -c 0 -i 25 -a 0 -x {1.2 4.0 2 ------- null}
h -t 1.34358171428571 -s 0 -d 4 -p ack -e 40 -c 0 -i 25 -a 0 -x {1.2 4.0 -1 ------- null}
r -t 1.34501028571429 -s 0 -d 1 -p tcp -e 1040 -c 0 -i 14 -a 0 -x {2.0 1.0 3 ------- null}
+ -t 1.34501028571429 -s 1 -d 0 -p ack -e 40 -c 0 -i 28 -a 0 -x {1.0 2.0 3 ------- null}
- -t 1.34501028571429 -s 1 -d 0 -p ack -e 40 -c 0 -i 28 -a 0 -x {1.0 2.0 3 ------- null}
h -t 1.34501028571429 -s 1 -d 0 -p ack -e 40 -c 0 -i 28 -a 0 -x {1.0 2.0 -1 ------- null}
- -t 1.346896 -s 0 -d 1 -p tcp -e 1040 -c 0 -i 17 -a 0 -x {3.0 1.1 3 ------- null}
h -t 1.346896 -s 0 -d 1 -p tcp -e 1040 -c 0 -i 17 -a 0 -x {3.0 1.1 -1 ------- null}
r -t 1.35256 -s 3 -d 0 -p tcp -e 1040 -c 0 -i 26 -a 0 -x {3.0 1.1 5 ------- null}
+ -t 1.35256 -s 0 -d 1 -p tcp -e 1040 -c 0 -i 26 -a 0 -x {3.0 1.1 5 ------- null}
r -t 1.353392 -s 3 -d 0 -p tcp -e 1040 -c 0 -i 27 -a 0 -x {3.0 1.1 6 ------- null}
+ -t 1.353392 -s 0 -d 1 -p tcp -e 1040 -c 0 -i 27 -a 0 -x {3.0 1.1 6 ------- null}
r -t 1.35361371428571 -s 0 -d 4 -p ack -e 40 -c 0 -i 25 -a 0 -x {1.2 4.0 2 ------- null}
+ -t 1.35361371428571 -s 4 -d 0 -p tcp -e 1040 -c 0 -i 29 -a 0 -x {4.0 1.2 5 ------- null}
- -t 1.35361371428571 -s 4 -d 0 -p tcp -e 1040 -c 0 -i 29 -a 0 -x {4.0 1.2 5 ------- null}
h -t 1.35361371428571 -s 4 -d 0 -p tcp -e 1040 -c 0 -i 29 -a 0 -x {4.0 1.2 -1 ------- null}
+ -t 1.35361371428571 -s 4 -d 0 -p tcp -e 1040 -c 0 -i 30 -a 0 -x {4.0 1.2 6 ------- null}
- -t 1.35444571428571 -s 4 -d 0 -p tcp -e 1040 -c 0 -i 30 -a 0 -x {4.0 1.2 6 ------- null}
h -t 1.35444571428571 -s 4 -d 0 -p tcp -e 1040 -c 0 -i 30 -a 0 -x {4.0 1.2 -1 ------- null}
r -t 1.35546742857143 -s 1 -d 0 -p ack -e 40 -c 0 -i 28 -a 0 -x {1.0 2.0 3 ------- null}
+ -t 1.35546742857143 -s 0 -d 2 -p ack -e 40 -c 0 -i 28 -a 0 -x {1.0 2.0 3 ------- null}
- -t 1.35546742857143 -s 0 -d 2 -p ack -e 40 -c 0 -i 28 -a 0 -x {1.0 2.0 3 ------- null}
h -t 1.35546742857143 -s 0 -d 2 -p ack -e 40 -c 0 -i 28 -a 0 -x {1.0 2.0 -1 ------- null}
r -t 1.356896 -s 0 -d 1 -p tcp -e 1040 -c 0 -i 15 -a 0 -x {2.0 1.0 4 ------- null}
+ -t 1.356896 -s 1 -d 0 -p ack -e 40 -c 0 -i 31 -a 0 -x {1.0 2.0 4 ------- null}
- -t 1.356896 -s 1 -d 0 -p ack -e 40 -c 0 -i 31 -a 0 -x {1.0 2.0 4 ------- null}
h -t 1.356896 -s 1 -d 0 -p ack -e 40 -c 0 -i 31 -a 0 -x {1.0 2.0 -1 ------- null}
- -t 1.35878171428571 -s 0 -d 1 -p tcp -e 1040 -c 0 -i 18 -a 0 -x {3.0 1.1 4 ------- null}
h -t 1.35878171428571 -s 0 -d 1 -p tcp -e 1040 -c 0 -i 18 -a 0 -x {3.0 1.1 -1 ------- null}
r -t 1.36444571428571 -s 4 -d 0 -p tcp -e 1040 -c 0 -i 29 -a 0 -x {4.0 1.2 5 ------- null}
+ -t 1.36444571428571 -s 0 -d 1 -p tcp -e 1040 -c 0 -i 29 -a 0 -x {4.0 1.2 5 ------- null}
r -t 1.36527771428571 -s 4 -d 0 -p tcp -e 1040 -c 0 -i 30 -a 0 -x {4.0 1.2 6 ------- null}
+ -t 1.36527771428571 -s 0 -d 1 -p tcp -e 1040 -c 0 -i 30 -a 0 -x {4.0 1.2 6 ------- null}
r -t 1.36549942857143 -s 0 -d 2 -p ack -e 40 -c 0 -i 28 -a 0 -x {1.0 2.0 3 ------- null}
+ -t 1.36549942857143 -s 2 -d 0 -p tcp -e 1040 -c 0 -i 32 -a 0 -x {2.0 1.0 7 ------- null}
- -t 1.36549942857143 -s 2 -d 0 -p tcp -e 1040 -c 0 -i 32 -a 0 -x {2.0 1.0 7 ------- null}
h -t 1.36549942857143 -s 2 -d 0 -p tcp -e 1040 -c 0 -i 32 -a 0 -x {2.0 1.0 -1 ------- null}
+ -t 1.36549942857143 -s 2 -d 0 -p tcp -e 1040 -c 0 -i 33 -a 0 -x {2.0 1.0 8 ------- null}
- -t 1.36633142857143 -s 2 -d 0 -p tcp -e 1040 -c 0 -i 33 -a 0 -x {2.0 1.0 8 ------- null}
h -t 1.36633142857143 -s 2 -d 0 -p tcp -e 1040 -c 0 -i 33 -a 0 -x {2.0 1.0 -1 ------- null}
r -t 1.36735314285714 -s 1 -d 0 -p ack -e 40 -c 0 -i 31 -a 0 -x {1.0 2.0 4 ------- null}
+ -t 1.36735314285714 -s 0 -d 2 -p ack -e 40 -c 0 -i 31 -a 0 -x {1.0 2.0 4 ------- null}
- -t 1.36735314285714 -s 0 -d 2 -p ack -e 40 -c 0 -i 31 -a 0 -x {1.0 2.0 4 ------- null}
h -t 1.36735314285714 -s 0 -d 2 -p ack -e 40 -c 0 -i 31 -a 0 -x {1.0 2.0 -1 ------- null}
r -t 1.36878171428571 -s 0 -d 1 -p tcp -e 1040 -c 0 -i 17 -a 0 -x {3.0 1.1 3 ------- null}
+ -t 1.36878171428571 -s 1 -d 0 -p ack -e 40 -c 0 -i 34 -a 0 -x {1.1 3.0 3 ------- null}
- -t 1.36878171428571 -s 1 -d 0 -p ack -e 40 -c 0 -i 34 -a 0 -x {1.1 3.0 3 ------- null}
h -t 1.36878171428571 -s 1 -d 0 -p ack -e 40 -c 0 -i 34 -a 0 -x {1.1 3.0 -1 ------- null}
- -t 1.37066742857143 -s 0 -d 1 -p tcp -e 1040 -c 0 -i 20 -a 0 -x {2.0 1.0 5 ------- null}
h -t 1.37066742857143 -s 0 -d 1 -p tcp -e 1040 -c 0 -i 20 -a 0 -x {2.0 1.0 -1 ------- null}
r -t 1.37633142857143 -s 2 -d 0 -p tcp -e 1040 -c 0 -i 32 -a 0 -x {2.0 1.0 7 ------- null}
+ -t 1.37633142857143 -s 0 -d 1 -p tcp -e 1040 -c 0 -i 32 -a 0 -x {2.0 1.0 7 ------- null}
r -t 1.37716342857143 -s 2 -d 0 -p tcp -e 1040 -c 0 -i 33 -a 0 -x {2.0 1.0 8 ------- null}
+ -t 1.37716342857143 -s 0 -d 1 -p tcp -e 1040 -c 0 -i 33 -a 0 -x {2.0 1.0 8 ------- null}
r -t 1.37738514285714 -s 0 -d 2 -p ack -e 40 -c 0 -i 31 -a 0 -x {1.0 2.0 4 ------- null}
+ -t 1.37738514285714 -s 2 -d 0 -p tcp -e 1040 -c 0 -i 35 -a 0 -x {2.0 1.0 9 ------- null}
- -t 1.37738514285714 -s 2 -d 0 -p tcp -e 1040 -c 0 -i 35 -a 0 -x {2.0 1.0 9 ------- null}
h -t 1.37738514285714 -s 2 -d 0 -p tcp -e 1040 -c 0 -i 35 -a 0 -x {2.0 1.0 -1 ------- null}
+ -t 1.37738514285714 -s 2 -d 0 -p tcp -e 1040 -c 0 -i 36 -a 0 -x {2.0 1.0 10 ------- null}
- -t 1.37821714285714 -s 2 -d 0 -p tcp -e 1040 -c 0 -i 36 -a 0 -x {2.0 1.0 10 ------- null}
h -t 1.37821714285714 -s 2 -d 0 -p tcp -e 1040 -c 0 -i 36 -a 0 -x {2.0 1.0 -1 ------- null}
r -t 1.37923885714286 -s 1 -d 0 -p ack -e 40 -c 0 -i 34 -a 0 -x {1.1 3.0 3 ------- null}
+ -t 1.37923885714286 -s 0 -d 3 -p ack -e 40 -c 0 -i 34 -a 0 -x {1.1 3.0 3 ------- null}
- -t 1.37923885714286 -s 0 -d 3 -p ack -e 40 -c 0 -i 34 -a 0 -x {1.1 3.0 3 ------- null}
h -t 1.37923885714286 -s 0 -d 3 -p ack -e 40 -c 0 -i 34 -a 0 -x {1.1 3.0 -1 ------- null}
r -t 1.38066742857143 -s 0 -d 1 -p tcp -e 1040 -c 0 -i 18 -a 0 -x {3.0 1.1 4 ------- null}
+ -t 1.38066742857143 -s 1 -d 0 -p ack -e 40 -c 0 -i 37 -a 0 -x {1.1 3.0 4 ------- null}
- -t 1.38066742857143 -s 1 -d 0 -p ack -e 40 -c 0 -i 37 -a 0 -x {1.1 3.0 4 ------- null}
h -t 1.38066742857143 -s 1 -d 0 -p ack -e 40 -c 0 -i 37 -a 0 -x {1.1 3.0 -1 ------- null}
- -t 1.38255314285714 -s 0 -d 1 -p tcp -e 1040 -c 0 -i 21 -a 0 -x {2.0 1.0 6 ------- null}
h -t 1.38255314285714 -s 0 -d 1 -p tcp -e 1040 -c 0 -i 21 -a 0 -x {2.0 1.0 -1 ------- null}
r -t 1.38821714285714 -s 2 -d 0 -p tcp -e 1040 -c 0 -i 35 -a 0 -x {2.0 1.0 9 ------- null}
+ -t 1.38821714285714 -s 0 -d 1 -p tcp -e 1040 -c 0 -i 35 -a 0 -x {2.0 1.0 9 ------- null}
r -t 1.38904914285714 -s 2 -d 0 -p tcp -e 1040 -c 0 -i 36 -a 0 -x {2.0 1.0 10 ------- null}
+ -t 1.38904914285714 -s 0 -d 1 -p tcp -e 1040 -c 0 -i 36 -a 0 -x {2.0 1.0 10 ------- null}
r -t 1.38927085714286 -s 0 -d 3 -p ack -e 40 -c 0 -i 34 -a 0 -x {1.1 3.0 3 ------- null}
+ -t 1.38927085714286 -s 3 -d 0 -p tcp -e 1040 -c 0 -i 38 -a 0 -x {3.0 1.1 7 ------- null}
- -t 1.38927085714286 -s 3 -d 0 -p tcp -e 1040 -c 0 -i 38 -a 0 -x {3.0 1.1 7 ------- null}
h -t 1.38927085714286 -s 3 -d 0 -p tcp -e 1040 -c 0 -i 38 -a 0 -x {3.0 1.1 -1 ------- null}
+ -t 1.38927085714286 -s 3 -d 0 -p tcp -e 1040 -c 0 -i 39 -a 0 -x {3.0 1.1 8 ------- null}
- -t 1.39010285714286 -s 3 -d 0 -p tcp -e 1040 -c 0 -i 39 -a 0 -x {3.0 1.1 8 ------- null}
h -t 1.39010285714286 -s 3 -d 0 -p tcp -e 1040 -c 0 -i 39 -a 0 -x {3.0 1.1 -1 ------- null}
r -t 1.39112457142857 -s 1 -d 0 -p ack -e 40 -c 0 -i 37 -a 0 -x {1.1 3.0 4 ------- null}
+ -t 1.39112457142857 -s 0 -d 3 -p ack -e 40 -c 0 -i 37 -a 0 -x {1.1 3.0 4 ------- null}
- -t 1.39112457142857 -s 0 -d 3 -p ack -e 40 -c 0 -i 37 -a 0 -x {1.1 3.0 4 ------- null}
h -t 1.39112457142857 -s 0 -d 3 -p ack -e 40 -c 0 -i 37 -a 0 -x {1.1 3.0 -1 ------- null}
r -t 1.39255314285714 -s 0 -d 1 -p tcp -e 1040 -c 0 -i 20 -a 0 -x {2.0 1.0 5 ------- null}
+ -t 1.39255314285714 -s 1 -d 0 -p ack -e 40 -c 0 -i 40 -a 0 -x {1.0 2.0 5 ------- null}
- -t 1.39255314285714 -s 1 -d 0 -p ack -e 40 -c 0 -i 40 -a 0 -x {1.0 2.0 5 ------- null}
h -t 1.39255314285714 -s 1 -d 0 -p ack -e 40 -c 0 -i 40 -a 0 -x {1.0 2.0 -1 ------- null}
- -t 1.39443885714286 -s 0 -d 1 -p tcp -e 1040 -c 0 -i 23 -a 0 -x {4.0 1.2 3 ------- null}
h -t 1.39443885714286 -s 0 -d 1 -p tcp -e 1040 -c 0 -i 23 -a 0 -x {4.0 1.2 -1 ------- null}
r -t 1.40010285714286 -s 3 -d 0 -p tcp -e 1040 -c 0 -i 38 -a 0 -x {3.0 1.1 7 ------- null}
+ -t 1.40010285714286 -s 0 -d 1 -p tcp -e 1040 -c 0 -i 38 -a 0 -x {3.0 1.1 7 ------- null}
r -t 1.40093485714286 -s 3 -d 0 -p tcp -e 1040 -c 0 -i 39 -a 0 -x {3.0 1.1 8 ------- null}
+ -t 1.40093485714286 -s 0 -d 1 -p tcp -e 1040 -c 0 -i 39 -a 0 -x {3.0 1.1 8 ------- null}
r -t 1.40115657142857 -s 0 -d 3 -p ack -e 40 -c 0 -i 37 -a 0 -x {1.1 3.0 4 ------- null}
+ -t 1.40115657142857 -s 3 -d 0 -p tcp -e 1040 -c 0 -i 41 -a 0 -x {3.0 1.1 9 ------- null}
- -t 1.40115657142857 -s 3 -d 0 -p tcp -e 1040 -c 0 -i 41 -a 0 -x {3.0 1.1 9 ------- null}
h -t 1.40115657142857 -s 3 -d 0 -p tcp -e 1040 -c 0 -i 41 -a 0 -x {3.0 1.1 -1 ------- null}
+ -t 1.40115657142857 -s 3 -d 0 -p tcp -e 1040 -c 0 -i 42 -a 0 -x {3.0 1.1 10 ------- null}
- -t 1.40198857142857 -s 3 -d 0 -p tcp -e 1040 -c 0 -i 42 -a 0 -x {3.0 1.1 10 ------- null}
h -t 1.40198857142857 -s 3 -d 0 -p tcp -e 1040 -c 0 -i 42 -a 0 -x {3.0 1.1 -1 ------- null}
r -t 1.40301028571429 -s 1 -d 0 -p ack -e 40 -c 0 -i 40 -a 0 -x {1.0 2.0 5 ------- null}
+ -t 1.40301028571429 -s 0 -d 2 -p ack -e 40 -c 0 -i 40 -a 0 -x {1.0 2.0 5 ------- null}
- -t 1.40301028571429 -s 0 -d 2 -p ack -e 40 -c 0 -i 40 -a 0 -x {1.0 2.0 5 ------- null}
h -t 1.40301028571429 -s 0 -d 2 -p ack -e 40 -c 0 -i 40 -a 0 -x {1.0 2.0 -1 ------- null}
r -t 1.40443885714286 -s 0 -d 1 -p tcp -e 1040 -c 0 -i 21 -a 0 -x {2.0 1.0 6 ------- null}
+ -t 1.40443885714286 -s 1 -d 0 -p ack -e 40 -c 0 -i 43 -a 0 -x {1.0 2.0 6 ------- null}
- -t 1.40443885714286 -s 1 -d 0 -p ack -e 40 -c 0 -i 43 -a 0 -x {1.0 2.0 6 ------- null}
h -t 1.40443885714286 -s 1 -d 0 -p ack -e 40 -c 0 -i 43 -a 0 -x {1.0 2.0 -1 ------- null}
- -t 1.40632457142857 -s 0 -d 1 -p tcp -e 1040 -c 0 -i 24 -a 0 -x {4.0 1.2 4 ------- null}
h -t 1.40632457142857 -s 0 -d 1 -p tcp -e 1040 -c 0 -i 24 -a 0 -x {4.0 1.2 -1 ------- null}
r -t 1.41198857142857 -s 3 -d 0 -p tcp -e 1040 -c 0 -i 41 -a 0 -x {3.0 1.1 9 ------- null}
+ -t 1.41198857142857 -s 0 -d 1 -p tcp -e 1040 -c 0 -i 41 -a 0 -x {3.0 1.1 9 ------- null}
r -t 1.41282057142857 -s 3 -d 0 -p tcp -e 1040 -c 0 -i 42 -a 0 -x {3.0 1.1 10 ------- null}
+ -t 1.41282057142857 -s 0 -d 1 -p tcp -e 1040 -c 0 -i 42 -a 0 -x {3.0 1.1 10 ------- null}
r -t 1.41304228571429 -s 0 -d 2 -p ack -e 40 -c 0 -i 40 -a 0 -x {1.0 2.0 5 ------- null}
+ -t 1.41304228571429 -s 2 -d 0 -p tcp -e 1040 -c 0 -i 44 -a 0 -x {2.0 1.0 11 ------- null}
- -t 1.41304228571429 -s 2 -d 0 -p tcp -e 1040 -c 0 -i 44 -a 0 -x {2.0 1.0 11 ------- null}
h -t 1.41304228571429 -s 2 -d 0 -p tcp -e 1040 -c 0 -i 44 -a 0 -x {2.0 1.0 -1 ------- null}
+ -t 1.41304228571429 -s 2 -d 0 -p tcp -e 1040 -c 0 -i 45 -a 0 -x {2.0 1.0 12 ------- null}
- -t 1.41387428571429 -s 2 -d 0 -p tcp -e 1040 -c 0 -i 45 -a 0 -x {2.0 1.0 12 ------- null}
h -t 1.41387428571429 -s 2 -d 0 -p tcp -e 1040 -c 0 -i 45 -a 0 -x {2.0 1.0 -1 ------- null}
r -t 1.414896 -s 1 -d 0 -p ack -e 40 -c 0 -i 43 -a 0 -x {1.0 2.0 6 ------- null}
+ -t 1.414896 -s 0 -d 2 -p ack -e 40 -c 0 -i 43 -a 0 -x {1.0 2.0 6 ------- null}
- -t 1.414896 -s 0 -d 2 -p ack -e 40 -c 0 -i 43 -a 0 -x {1.0 2.0 6 ------- null}
h -t 1.414896 -s 0 -d 2 -p ack -e 40 -c 0 -i 43 -a 0 -x {1.0 2.0 -1 ------- null}
r -t 1.41632457142857 -s 0 -d 1 -p tcp -e 1040 -c 0 -i 23 -a 0 -x {4.0 1.2 3 ------- null}
+ -t 1.41632457142857 -s 1 -d 0 -p ack -e 40 -c 0 -i 46 -a 0 -x {1.2 4.0 3 ------- null}
- -t 1.41632457142857 -s 1 -d 0 -p ack -e 40 -c 0 -i 46 -a 0 -x {1.2 4.0 3 ------- null}
h -t 1.41632457142857 -s 1 -d 0 -p ack -e 40 -c 0 -i 46 -a 0 -x {1.2 4.0 -1 ------- null}
- -t 1.41821028571429 -s 0 -d 1 -p tcp -e 1040 -c 0 -i 26 -a 0 -x {3.0 1.1 5 ------- null}
h -t 1.41821028571429 -s 0 -d 1 -p tcp -e 1040 -c 0 -i 26 -a 0 -x {3.0 1.1 -1 ------- null}
r -t 1.42387428571429 -s 2 -d 0 -p tcp -e 1040 -c 0 -i 44 -a 0 -x {2.0 1.0 11 ------- null}
+ -t 1.42387428571429 -s 0 -d 1 -p tcp -e 1040 -c 0 -i 44 -a 0 -x {2.0 1.0 11 ------- null}
r -t 1.42470628571429 -s 2 -d 0 -p tcp -e 1040 -c 0 -i 45 -a 0 -x {2.0 1.0 12 ------- null}
+ -t 1.42470628571429 -s 0 -d 1 -p tcp -e 1040 -c 0 -i 45 -a 0 -x {2.0 1.0 12 ------- null}
r -t 1.424928 -s 0 -d 2 -p ack -e 40 -c 0 -i 43 -a 0 -x {1.0 2.0 6 ------- null}
+ -t 1.424928 -s 2 -d 0 -p tcp -e 1040 -c 0 -i 47 -a 0 -x {2.0 1.0 13 ------- null}