+ 1.2 2 0 tcp 40 ------- 0 2.0 1.0 0 0
- 1.2 2 0 tcp 40 ------- 0 2.0 1.0 0 0
+ 1.2 3 0 tcp 40 ------- 0 3.0 1.1 0 1
- 1.2 3 0 tcp 40 ------- 0 3.0 1.1 0 1
+ 1.2 4 0 tcp 40 ------- 0 4.0 1.2 0 2
- 1.2 4 0 tcp 40 ------- 0 4.0 1.2 0 2
r 1.210032 2 0 tcp 40 ------- 0 2.0 1.0 0 0
+ 1.210032 0 1 tcp 40 ------- 0 2.0 1.0 0 0
- 1.210032 0 1 tcp 40 ------- 0 2.0 1.0 0 0
r 1.210032 3 0 tcp 40 ------- 0 3.0 1.1 0 1
+ 1.210032 0 1 tcp 40 ------- 0 3.0 1.1 0 1
r 1.210032 4 0 tcp 40 ------- 0 4.0 1.2 0 2
+ 1.210032 0 1 tcp 40 ------- 0 4.0 1.2 0 2
- 1.210489 0 1 tcp 40 ------- 0 3.0 1.1 0 1
- 1.210946 0 1 tcp 40 ------- 0 4.0 1.2 0 2
r 1.220489 0 1 tcp 40 ------- 0 2.0 1.0 0 0
+ 1.220489 1 0 ack 40 ------- 0 1.0 2.0 0 3
- 1.220489 1 0 ack 40 ------- 0 1.0 2.0 0 3
r 1.220946 0 1 tcp 40 ------- 0 3.0 1.1 0 1
+ 1.220946 1 0 ack 40 ------- 0 1.1 3.0 0 4
- 1.220946 1 0 ack 40 ------- 0 1.1 3.0 0 4
r 1.221403 0 1 tcp 40 ------- 0 4.0 1.2 0 2
+ 1.221403 1 0 ack 40 ------- 0 1.2 4.0 0 5
- 1.221403 1 0 ack 40 ------- 0 1.2 4.0 0 5
r 1.230946 1 0 ack 40 ------- 0 1.0 2.0 0 3
+ 1.230946 0 2 ack 40 ------- 0 1.0 2.0 0 3
- 1.230946 0 2 ack 40 ------- 0 1.0 2.0 0 3
r 1.231403 1 0 ack 40 ------- 0 1.1 3.0 0 4
+ 1.231403 0 3 ack 40 ------- 0 1.1 3.0 0 4
- 1.231403 0 3 ack 40 ------- 0 1.1 3.0 0 4
r 1.231861 1 0 ack 40 ------- 0 1.2 4.0 0 5
+ 1.231861 0 4 ack 40 ------- 0 1.2 4.0 0 5
- 1.231861 0 4 ack 40 ------- 0 1.2 4.0 0 5
r 1.240978 0 2 ack 40 ------- 0 1.0 2.0 0 3
+ 1.240978 2 0 tcp 1040 ------- 0 2.0 1.0 1 6
- 1.240978 2 0 tcp 1040 ------- 0 2.0 1.0 1 6
+ 1.240978 2 0 tcp 1040 ------- 0 2.0 1.0 2 7
r 1.241435 0 3 ack 40 ------- 0 1.1 3.0 0 4
+ 1.241435 3 0 tcp 1040 ------- 0 3.0 1.1 1 8
- 1.241435 3 0 tcp 1040 ------- 0 3.0 1.1 1 8
+ 1.241435 3 0 tcp 1040 ------- 0 3.0 1.1 2 9
- 1.24181 2 0 tcp 1040 ------- 0 2.0 1.0 2 7
r 1.241893 0 4 ack 40 ------- 0 1.2 4.0 0 5
+ 1.241893 4 0 tcp 1040 ------- 0 4.0 1.2 1 10
- 1.241893 4 0 tcp 1040 ------- 0 4.0 1.2 1 10
+ 1.241893 4 0 tcp 1040 ------- 0 4.0 1.2 2 11
- 1.242267 3 0 tcp 1040 ------- 0 3.0 1.1 2 9
- 1.242725 4 0 tcp 1040 ------- 0 4.0 1.2 2 11
r 1.25181 2 0 tcp 1040 ------- 0 2.0 1.0 1 6
+ 1.25181 0 1 tcp 1040 ------- 0 2.0 1.0 1 6
- 1.25181 0 1 tcp 1040 ------- 0 2.0 1.0 1 6
r 1.252267 3 0 tcp 1040 ------- 0 3.0 1.1 1 8
+ 1.252267 0 1 tcp 1040 ------- 0 3.0 1.1 1 8
r 1.252642 2 0 tcp 1040 ------- 0 2.0 1.0 2 7
+ 1.252642 0 1 tcp 1040 ------- 0 2.0 1.0 2 7
r 1.252725 4 0 tcp 1040 ------- 0 4.0 1.2 1 10
+ 1.252725 0 1 tcp 1040 ------- 0 4.0 1.2 1 10
r 1.253099 3 0 tcp 1040 ------- 0 3.0 1.1 2 9
+ 1.253099 0 1 tcp 1040 ------- 0 3.0 1.1 2 9
r 1.253557 4 0 tcp 1040 ------- 0 4.0 1.2 2 11
+ 1.253557 0 1 tcp 1040 ------- 0 4.0 1.2 2 11
- 1.263696 0 1 tcp 1040 ------- 0 3.0 1.1 1 8
r 1.273696 0 1 tcp 1040 ------- 0 2.0 1.0 1 6
+ 1.273696 1 0 ack 40 ------- 0 1.0 2.0 1 12
- 1.273696 1 0 ack 40 ------- 0 1.0 2.0 1 12
- 1.275582 0 1 tcp 1040 ------- 0 2.0 1.0 2 7
r 1.284153 1 0 ack 40 ------- 0 1.0 2.0 1 12
+ 1.284153 0 2 ack 40 ------- 0 1.0 2.0 1 12
- 1.284153 0 2 ack 40 ------- 0 1.0 2.0 1 12
r 1.285582 0 1 tcp 1040 ------- 0 3.0 1.1 1 8
+ 1.285582 1 0 ack 40 ------- 0 1.1 3.0 1 13
- 1.285582 1 0 ack 40 ------- 0 1.1 3.0 1 13
- 1.287467 0 1 tcp 1040 ------- 0 4.0 1.2 1 10
r 1.294185 0 2 ack 40 ------- 0 1.0 2.0 1 12
+ 1.294185 2 0 tcp 1040 ------- 0 2.0 1.0 3 14
- 1.294185 2 0 tcp 1040 ------- 0 2.0 1.0 3 14
+ 1.294185 2 0 tcp 1040 ------- 0 2.0 1.0 4 15
- 1.295017 2 0 tcp 1040 ------- 0 2.0 1.0 4 15
r 1.296039 1 0 ack 40 ------- 0 1.1 3.0 1 13
+ 1.296039 0 3 ack 40 ------- 0 1.1 3.0 1 13
- 1.296039 0 3 ack 40 ------- 0 1.1 3.0 1 13
r 1.297467 0 1 tcp 1040 ------- 0 2.0 1.0 2 7
+ 1.297467 1 0 ack 40 ------- 0 1.0 2.0 2 16
- 1.297467 1 0 ack 40 ------- 0 1.0 2.0 2 16
- 1.299353 0 1 tcp 1040 ------- 0 3.0 1.1 2 9
r 1.305017 2 0 tcp 1040 ------- 0 2.0 1.0 3 14
+ 1.305017 0 1 tcp 1040 ------- 0 2.0 1.0 3 14
r 1.305849 2 0 tcp 1040 ------- 0 2.0 1.0 4 15
+ 1.305849 0 1 tcp 1040 ------- 0 2.0 1.0 4 15
r 1.306071 0 3 ack 40 ------- 0 1.1 3.0 1 13
+ 1.306071 3 0 tcp 1040 ------- 0 3.0 1.1 3 17
- 1.306071 3 0 tcp 1040 ------- 0 3.0 1.1 3 17
+ 1.306071 3 0 tcp 1040 ------- 0 3.0 1.1 4 18
- 1.306903 3 0 tcp 1040 ------- 0 3.0 1.1 4 18
r 1.307925 1 0 ack 40 ------- 0 1.0 2.0 2 16
+ 1.307925 0 2 ack 40 ------- 0 1.0 2.0 2 16
- 1.307925 0 2 ack 40 ------- 0 1.0 2.0 2 16
r 1.309353 0 1 tcp 1040 ------- 0 4.0 1.2 1 10
+ 1.309353 1 0 ack 40 ------- 0 1.2 4.0 1 19
- 1.309353 1 0 ack 40 ------- 0 1.2 4.0 1 19
- 1.311239 0 1 tcp 1040 ------- 0 4.0 1.2 2 11
r 1.316903 3 0 tcp 1040 ------- 0 3.0 1.1 3 17
+ 1.316903 0 1 tcp 1040 ------- 0 3.0 1.1 3 17
r 1.317735 3 0 tcp 1040 ------- 0 3.0 1.1 4 18
+ 1.317735 0 1 tcp 1040 ------- 0 3.0 1.1 4 18
r 1.317957 0 2 ack 40 ------- 0 1.0 2.0 2 16
+ 1.317957 2 0 tcp 1040 ------- 0 2.0 1.0 5 20
- 1.317957 2 0 tcp 1040 ------- 0 2.0 1.0 5 20
+ 1.317957 2 0 tcp 1040 ------- 0 2.0 1.0 6 21
- 1.318789 2 0 tcp 1040 ------- 0 2.0 1.0 6 21
r 1.31981 1 0 ack 40 ------- 0 1.2 4.0 1 19
+ 1.31981 0 4 ack 40 ------- 0 1.2 4.0 1 19
- 1.31981 0 4 ack 40 ------- 0 1.2 4.0 1 19
r 1.321239 0 1 tcp 1040 ------- 0 3.0 1.1 2 9
+ 1.321239 1 0 ack 40 ------- 0 1.1 3.0 2 22
- 1.321239 1 0 ack 40 ------- 0 1.1 3.0 2 22
- 1.323125 0 1 tcp 1040 ------- 0 2.0 1.0 3 14
r 1.328789 2 0 tcp 1040 ------- 0 2.0 1.0 5 20
+ 1.328789 0 1 tcp 1040 ------- 0 2.0 1.0 5 20
r 1.329621 2 0 tcp 1040 ------- 0 2.0 1.0 6 21
+ 1.329621 0 1 tcp 1040 ------- 0 2.0 1.0 6 21
r 1.329842 0 4 ack 40 ------- 0 1.2 4.0 1 19
+ 1.329842 4 0 tcp 1040 ------- 0 4.0 1.2 3 23
- 1.329842 4 0 tcp 1040 ------- 0 4.0 1.2 3 23
+ 1.329842 4 0 tcp 1040 ------- 0 4.0 1.2 4 24
- 1.330674 4 0 tcp 1040 ------- 0 4.0 1.2 4 24
r 1.331696 1 0 ack 40 ------- 0 1.1 3.0 2 22
+ 1.331696 0 3 ack 40 ------- 0 1.1 3.0 2 22
- 1.331696 0 3 ack 40 ------- 0 1.1 3.0 2 22
r 1.333125 0 1 tcp 1040 ------- 0 4.0 1.2 2 11
+ 1.333125 1 0 ack 40 ------- 0 1.2 4.0 2 25
- 1.333125 1 0 ack 40 ------- 0 1.2 4.0 2 25
- 1.33501 0 1 tcp 1040 ------- 0 2.0 1.0 4 15
r 1.340674 4 0 tcp 1040 ------- 0 4.0 1.2 3 23
+ 1.340674 0 1 tcp 1040 ------- 0 4.0 1.2 3 23
r 1.341506 4 0 tcp 1040 ------- 0 4.0 1.2 4 24
+ 1.341506 0 1 tcp 1040 ------- 0 4.0 1.2 4 24
r 1.341728 0 3 ack 40 ------- 0 1.1 3.0 2 22
+ 1.341728 3 0 tcp 1040 ------- 0 3.0 1.1 5 26
- 1.341728 3 0 tcp 1040 ------- 0 3.0 1.1 5 26
+ 1.341728 3 0 tcp 1040 ------- 0 3.0 1.1 6 27
- 1.34256 3 0 tcp 1040 ------- 0 3.0 1.1 6 27
r 1.343582 1 0 ack 40 ------- 0 1.2 4.0 2 25
+ 1.343582 0 4 ack 40 ------- 0 1.2 4.0 2 25
- 1.343582 0 4 ack 40 ------- 0 1.2 4.0 2 25
r 1.34501 0 1 tcp 1040 ------- 0 2.0 1.0 3 14
+ 1.34501 1 0 ack 40 ------- 0 1.0 2.0 3 28
- 1.34501 1 0 ack 40 ------- 0 1.0 2.0 3 28
- 1.346896 0 1 tcp 1040 ------- 0 3.0 1.1 3 17
r 1.35256 3 0 tcp 1040 ------- 0 3.0 1.1 5 26
+ 1.35256 0 1 tcp 1040 ------- 0 3.0 1.1 5 26
r 1.353392 3 0 tcp 1040 ------- 0 3.0 1.1 6 27
+ 1.353392 0 1 tcp 1040 ------- 0 3.0 1.1 6 27
r 1.353614 0 4 ack 40 ------- 0 1.2 4.0 2 25
+ 1.353614 4 0 tcp 1040 ------- 0 4.0 1.2 5 29
- 1.353614 4 0 tcp 1040 ------- 0 4.0 1.2 5 29
+ 1.353614 4 0 tcp 1040 ------- 0 4.0 1.2 6 30
- 1.354446 4 0 tcp 1040 ------- 0 4.0 1.2 6 30
r 1.355467 1 0 ack 40 ------- 0 1.0 2.0 3 28
+ 1.355467 0 2 ack 40 ------- 0 1.0 2.0 3 28
- 1.355467 0 2 ack 40 ------- 0 1.0 2.0 3 28
r 1.356896 0 1 tcp 1040 ------- 0 2.0 1.0 4 15
+ 1.356896 1 0 ack 40 ------- 0 1.0 2.0 4 31
- 1.356896 1 0 ack 40 ------- 0 1.0 2.0 4 31
- 1.358782 0 1 tcp 1040 ------- 0 3.0 1.1 4 18
r 1.364446 4 0 tcp 1040 ------- 0 4.0 1.2 5 29
+ 1.364446 0 1 tcp 1040 ------- 0 4.0 1.2 5 29
r 1.365278 4 0 tcp 1040 ------- 0 4.0 1.2 6 30
+ 1.365278 0 1 tcp 1040 ------- 0 4.0 1.2 6 30
r 1.365499 0 2 ack 40 ------- 0 1.0 2.0 3 28
+ 1.365499 2 0 tcp 1040 ------- 0 2.0 1.0 7 32
- 1.365499 2 0 tcp 1040 ------- 0 2.0 1.0 7 32
+ 1.365499 2 0 tcp 1040 ------- 0 2.0 1.0 8 33
- 1.366331 2 0 tcp 1040 ------- 0 2.0 1.0 8 33
r 1.367353 1 0 ack 40 ------- 0 1.0 2.0 4 31
+ 1.367353 0 2 ack 40 ------- 0 1.0 2.0 4 31
- 1.367353 0 2 ack 40 ------- 0 1.0 2.0 4 31
r 1.368782 0 1 tcp 1040 ------- 0 3.0 1.1 3 17
+ 1.368782 1 0 ack 40 ------- 0 1.1 3.0 3 34
- 1.368782 1 0 ack 40 ------- 0 1.1 3.0 3 34
- 1.370667 0 1 tcp 1040 ------- 0 2.0 1.0 5 20
r 1.376331 2 0 tcp 1040 ------- 0 2.0 1.0 7 32
+ 1.376331 0 1 tcp 1040 ------- 0 2.0 1.0 7 32
r 1.377163 2 0 tcp 1040 ------- 0 2.0 1.0 8 33
+ 1.377163 0 1 tcp 1040 ------- 0 2.0 1.0 8 33
r 1.377385 0 2 ack 40 ------- 0 1.0 2.0 4 31
+ 1.377385 2 0 tcp 1040 ------- 0 2.0 1.0 9 35
- 1.377385 2 0 tcp 1040 ------- 0 2.0 1.0 9 35
+ 1.377385 2 0 tcp 1040 ------- 0 2.0 1.0 10 36
- 1.378217 2 0 tcp 1040 ------- 0 2.0 1.0 10 36
r 1.379239 1 0 ack 40 ------- 0 1.1 3.0 3 34
+ 1.379239 0 3 ack 40 ------- 0 1.1 3.0 3 34
- 1.379239 0 3 ack 40 ------- 0 1.1 3.0 3 34
r 1.380667 0 1 tcp 1040 ------- 0 3.0 1.1 4 18
+ 1.380667 1 0 ack 40 ------- 0 1.1 3.0 4 37
- 1.380667 1 0 ack 40 ------- 0 1.1 3.0 4 37
- 1.382553 0 1 tcp 1040 ------- 0 2.0 1.0 6 21
r 1.388217 2 0 tcp 1040 ------- 0 2.0 1.0 9 35
+ 1.388217 0 1 tcp 1040 ------- 0 2.0 1.0 9 35
r 1.389049 2 0 tcp 1040 ------- 0 2.0 1.0 10 36
+ 1.389049 0 1 tcp 1040 ------- 0 2.0 1.0 10 36
r 1.389271 0 3 ack 40 ------- 0 1.1 3.0 3 34
+ 1.389271 3 0 tcp 1040 ------- 0 3.0 1.1 7 38
- 1.389271 3 0 tcp 1040 ------- 0 3.0 1.1 7 38
+ 1.389271 3 0 tcp 1040 ------- 0 3.0 1.1 8 39
- 1.390103 3 0 tcp 1040 ------- 0 3.0 1.1 8 39
r 1.391125 1 0 ack 40 ------- 0 1.1 3.0 4 37
+ 1.391125 0 3 ack 40 ------- 0 1.1 3.0 4 37
- 1.391125 0 3 ack 40 ------- 0 1.1 3.0 4 37
r 1.392553 0 1 tcp 1040 ------- 0 2.0 1.0 5 20
+ 1.392553 1 0 ack 40 ------- 0 1.0 2.0 5 40
- 1.392553 1 0 ack 40 ------- 0 1.0 2.0 5 40
- 1.394439 0 1 tcp 1040 ------- 0 4.0 1.2 3 23
r 1.400103 3 0 tcp 1040 ------- 0 3.0 1.1 7 38
+ 1.400103 0 1 tcp 1040 ------- 0 3.0 1.1 7 38
r 1.400935 3 0 tcp 1040 ------- 0 3.0 1.1 8 39
+ 1.400935 0 1 tcp 1040 ------- 0 3.0 1.1 8 39
r 1.401157 0 3 ack 40 ------- 0 1.1 3.0 4 37
+ 1.401157 3 0 tcp 1040 ------- 0 3.0 1.1 9 41
- 1.401157 3 0 tcp 1040 ------- 0 3.0 1.1 9 41
+ 1.401157 3 0 tcp 1040 ------- 0 3.0 1.1 10 42
- 1.401989 3 0 tcp 1040 ------- 0 3.0 1.1 10 42
r 1.40301 1 0 ack 40 ------- 0 1.0 2.0 5 40
+ 1.40301 0 2 ack 40 ------- 0 1.0 2.0 5 40
- 1.40301 0 2 ack 40 ------- 0 1.0 2.0 5 40
r 1.404439 0 1 tcp 1040 ------- 0 2.0 1.0 6 21
+ 1.404439 1 0 ack 40 ------- 0 1.0 2.0 6 43
- 1.404439 1 0 ack 40 ------- 0 1.0 2.0 6 43
- 1.406325 0 1 tcp 1040 ------- 0 4.0 1.2 4 24
r 1.411989 3 0 tcp 1040 ------- 0 3.0 1.1 9 41
+ 1.411989 0 1 tcp 1040 ------- 0 3.0 1.1 9 41
r 1.412821 3 0 tcp 1040 ------- 0 3.0 1.1 10 42
+ 1.412821 0 1 tcp 1040 ------- 0 3.0 1.1 10 42
r 1.413042 0 2 ack 40 ------- 0 1.0 2.0 5 40
+ 1.413042 2 0 tcp 1040 ------- 0 2.0 1.0 11 44
- 1.413042 2 0 tcp 1040 ------- 0 2.0 1.0 11 44
+ 1.413042 2 0 tcp 1040 ------- 0 2.0 1.0 12 45
- 1.413874 2 0 tcp 1040 ------- 0 2.0 1.0 12 45
r 1.414896 1 0 ack 40 ------- 0 1.0 2.0 6 43
+ 1.414896 0 2 ack 40 ------- 0 1.0 2.0 6 43
- 1.414896 0 2 ack 40 ------- 0 1.0 2.0 6 43
r 1.416325 0 1 tcp 1040 ------- 0 4.0 1.2 3 23
+ 1.416325 1 0 ack 40 ------- 0 1.2 4.0 3 46
- 1.416325 1 0 ack 40 ------- 0 1.2 4.0 3 46
- 1.41821 0 1 tcp 1040 ------- 0 3.0 1.1 5 26
r 1.423874 2 0 tcp 1040 ------- 0 2.0 1.0 11 44
+ 1.423874 0 1 tcp 1040 ------- 0 2.0 1.0 11 44
r 1.424706 2 0 tcp 1040 ------- 0 2.0 1.0 12 45
+ 1.424706 0 1 tcp 1040 ------- 0 2.0 1.0 12 45
r 1.424928 0 2 ack 40 ------- 0 1.0 2.0 6 43
+ 1.424928 2 0 tcp 1040 ------- 0 2.0 1.0 13 47
- 1.424928 2 0 tcp 1040 ------- 0 2.0 1.0 13 47
+ 1.424928 2 0 tcp 1040 ------- 0 2.0 1.0 14 48
- 1.42576 2 0 tcp 1040 ------- 0 2.0 1.0 14 48
r 1.426782 1 0 ack 40 ------- 0 1.2 4.0 3 46
+ 1.426782 0 4 ack 40 ------- 0 1.2 4.0 3 46
- 1.426782 0 4 ack 40 ------- 0 1.2 4.0 3 46
r 1.42821 0 1 tcp 1040 ------- 0 4.0 1.2 4 24
+ 1.42821 1 0 ack 40 ------- 0 1.2 4.0 4 49
- 1.42821 1 0 ack 40 ------- 0 1.2 4.0 4 49
- 1.430096 0 1 tcp 1040 ------- 0 3.0 1.1 6 27
r 1.43576 2 0 tcp 1040 ------- 0 2.0 1.0 13 47
+ 1.43576 0 1 tcp 1040 ------- 0 2.0 1.0 13 47
r 1.436592 2 0 tcp 1040 ------- 0 2.0 1.0 14 48
+ 1.436592 0 1 tcp 1040 ------- 0 2.0 1.0 14 48
r 1.436814 0 4 ack 40 ------- 0 1.2 4.0 3 46
+ 1.436814 4 0 tcp 1040 ------- 0 4.0 1.2 7 50
- 1.436814 4 0 tcp 1040 ------- 0 4.0 1.2 7 50
+ 1.436814 4 0 tcp 1040 ------- 0 4.0 1.2 8 51
- 1.437646 4 0 tcp 1040 ------- 0 4.0 1.2 8 51
r 1.438667 1 0 ack 40 ------- 0 1.2 4.0 4 49
+ 1.438667 0 4 ack 40 ------- 0 1.2 4.0 4 49
- 1.438667 0 4 ack 40 ------- 0 1.2 4.0 4 49
r 1.440096 0 1 tcp 1040 ------- 0 3.0 1.1 5 26
+ 1.440096 1 0 ack 40 ------- 0 1.1 3.0 5 52
- 1.440096 1 0 ack 40 ------- 0 1.1 3.0 5 52
- 1.441982 0 1 tcp 1040 ------- 0 4.0 1.2 5 29
r 1.447646 4 0 tcp 1040 ------- 0 4.0 1.2 7 50
+ 1.447646 0 1 tcp 1040 ------- 0 4.0 1.2 7 50
r 1.448478 4 0 tcp 1040 ------- 0 4.0 1.2 8 51
+ 1.448478 0 1 tcp 1040 ------- 0 4.0 1.2 8 51
r 1.448699 0 4 ack 40 ------- 0 1.2 4.0 4 49
+ 1.448699 4 0 tcp 1040 ------- 0 4.0 1.2 9 53
- 1.448699 4 0 tcp 1040 ------- 0 4.0 1.2 9 53
+ 1.448699 4 0 tcp 1040 ------- 0 4.0 1.2 10 54
- 1.449531 4 0 tcp 1040 ------- 0 4.0 1.2 10 54
r 1.450553 1 0 ack 40 ------- 0 1.1 3.0 5 52
+ 1.450553 0 3 ack 40 ------- 0 1.1 3.0 5 52
- 1.450553 0 3 ack 40 ------- 0 1.1 3.0 5 52
r 1.451982 0 1 tcp 1040 ------- 0 3.0 1.1 6 27
+ 1.451982 1 0 ack 40 ------- 0 1.1 3.0 6 55
- 1.451982 1 0 ack 40 ------- 0 1.1 3.0 6 55
- 1.453867 0 1 tcp 1040 ------- 0 4.0 1.2 6 30
r 1.459531 4 0 tcp 1040 ------- 0 4.0 1.2 9 53
+ 1.459531 0 1 tcp 1040 ------- 0 4.0 1.2 9 53
r 1.460363 4 0 tcp 1040 ------- 0 4.0 1.2 10 54
+ 1.460363 0 1 tcp 1040 ------- 0 4.0 1.2 10 54
r 1.460585 0 3 ack 40 ------- 0 1.1 3.0 5 52
+ 1.460585 3 0 tcp 1040 ------- 0 3.0 1.1 11 56
- 1.460585 3 0 tcp 1040 ------- 0 3.0 1.1 11 56
+ 1.460585 3 0 tcp 1040 ------- 0 3.0 1.1 12 57
- 1.461417 3 0 tcp 1040 ------- 0 3.0 1.1 12 57
r 1.462439 1 0 ack 40 ------- 0 1.1 3.0 6 55
+ 1.462439 0 3 ack 40 ------- 0 1.1 3.0 6 55
- 1.462439 0 3 ack 40 ------- 0 1.1 3.0 6 55
r 1.463867 0 1 tcp 1040 ------- 0 4.0 1.2 5 29
+ 1.463867 1 0 ack 40 ------- 0 1.2 4.0 5 58
- 1.463867 1 0 ack 40 ------- 0 1.2 4.0 5 58
- 1.465753 0 1 tcp 1040 ------- 0 2.0 1.0 7 32
r 1.471417 3 0 tcp 1040 ------- 0 3.0 1.1 11 56
+ 1.471417 0 1 tcp 1040 ------- 0 3.0 1.1 11 56
r 1.472249 3 0 tcp 1040 ------- 0 3.0 1.1 12 57
+ 1.472249 0 1 tcp 1040 ------- 0 3.0 1.1 12 57
r 1.472471 0 3 ack 40 ------- 0 1.1 3.0 6 55
+ 1.472471 3 0 tcp 1040 ------- 0 3.0 1.1 13 59
- 1.472471 3 0 tcp 1040 ------- 0 3.0 1.1 13 59
+ 1.472471 3 0 tcp 1040 ------- 0 3.0 1.1 14 60
- 1.473303 3 0 tcp 1040 ------- 0 3.0 1.1 14 60
r 1.474325 1 0 ack 40 ------- 0 1.2 4.0 5 58
+ 1.474325 0 4 ack 40 ------- 0 1.2 4.0 5 58
- 1.474325 0 4 ack 40 ------- 0 1.2 4.0 5 58
r 1.475753 0 1 tcp 1040 ------- 0 4.0 1.2 6 30
+ 1.475753 1 0 ack 40 ------- 0 1.2 4.0 6 61
- 1.475753 1 0 ack 40 ------- 0 1.2 4.0 6 61
- 1.477639 0 1 tcp 1040 ------- 0 2.0 1.0 8 33
r 1.483303 3 0 tcp 1040 ------- 0 3.0 1.1 13 59
+ 1.483303 0 1 tcp 1040 ------- 0 3.0 1.1 13 59
r 1.484135 3 0 tcp 1040 ------- 0 3.0 1.1 14 60
+ 1.484135 0 1 tcp 1040 ------- 0 3.0 1.1 14 60
r 1.484357 0 4 ack 40 ------- 0 1.2 4.0 5 58
+ 1.484357 4 0 tcp 1040 ------- 0 4.0 1.2 11 62
- 1.484357 4 0 tcp 1040 ------- 0 4.0 1.2 11 62
+ 1.484357 4 0 tcp 1040 ------- 0 4.0 1.2 12 63
- 1.485189 4 0 tcp 1040 ------- 0 4.0 1.2 12 63
r 1.48621 1 0 ack 40 ------- 0 1.2 4.0 6 61
+ 1.48621 0 4 ack 40 ------- 0 1.2 4.0 6 61
- 1.48621 0 4 ack 40 ------- 0 1.2 4.0 6 61
r 1.487639 0 1 tcp 1040 ------- 0 2.0 1.0 7 32
+ 1.487639 1 0 ack 40 ------- 0 1.0 2.0 7 64
- 1.487639 1 0 ack 40 ------- 0 1.0 2.0 7 64
- 1.489525 0 1 tcp 1040 ------- 0 2.0 1.0 9 35
r 1.495189 4 0 tcp 1040 ------- 0 4.0 1.2 11 62
+ 1.495189 0 1 tcp 1040 ------- 0 4.0 1.2 11 62
r 1.496021 4 0 tcp 1040 ------- 0 4.0 1.2 12 63
+ 1.496021 0 1 tcp 1040 ------- 0 4.0 1.2 12 63
r 1.496242 0 4 ack 40 ------- 0 1.2 4.0 6 61
+ 1.496242 4 0 tcp 1040 ------- 0 4.0 1.2 13 65
- 1.496242 4 0 tcp 1040 ------- 0 4.0 1.2 13 65
+ 1.496242 4 0 tcp 1040 ------- 0 4.0 1.2 14 66
- 1.497074 4 0 tcp 1040 ------- 0 4.0 1.2 14 66
r 1.498096 1 0 ack 40 ------- 0 1.0 2.0 7 64
+ 1.498096 0 2 ack 40 ------- 0 1.0 2.0 7 64
- 1.498096 0 2 ack 40 ------- 0 1.0 2.0 7 64
r 1.499525 0 1 tcp 1040 ------- 0 2.0 1.0 8 33
+ 1.499525 1 0 ack 40 ------- 0 1.0 2.0 8 67
- 1.499525 1 0 ack 40 ------- 0 1.0 2.0 8 67
- 1.50141 0 1 tcp 1040 ------- 0 2.0 1.0 10 36
r 1.507074 4 0 tcp 1040 ------- 0 4.0 1.2 13 65
+ 1.507074 0 1 tcp 1040 ------- 0 4.0 1.2 13 65
r 1.507906 4 0 tcp 1040 ------- 0 4.0 1.2 14 66
+ 1.507906 0 1 tcp 1040 ------- 0 4.0 1.2 14 66
r 1.508128 0 2 ack 40 ------- 0 1.0 2.0 7 64
+ 1.508128 2 0 tcp 1040 ------- 0 2.0 1.0 15 68
- 1.508128 2 0 tcp 1040 ------- 0 2.0 1.0 15 68
+ 1.508128 2 0 tcp 1040 ------- 0 2.0 1.0 16 69
- 1.50896 2 0 tcp 1040 ------- 0 2.0 1.0 16 69
r 1.509982 1 0 ack 40 ------- 0 1.0 2.0 8 67
+ 1.509982 0 2 ack 40 ------- 0 1.0 2.0 8 67
- 1.509982 0 2 ack 40 ------- 0 1.0 2.0 8 67
r 1.51141 0 1 tcp 1040 ------- 0 2.0 1.0 9 35
+ 1.51141 1 0 ack 40 ------- 0 1.0 2.0 9 70
- 1.51141 1 0 ack 40 ------- 0 1.0 2.0 9 70
- 1.513296 0 1 tcp 1040 ------- 0 3.0 1.1 7 38
r 1.51896 2 0 tcp 1040 ------- 0 2.0 1.0 15 68
+ 1.51896 0 1 tcp 1040 ------- 0 2.0 1.0 15 68
r 1.519792 2 0 tcp 1040 ------- 0 2.0 1.0 16 69
+ 1.519792 0 1 tcp 1040 ------- 0 2.0 1.0 16 69
r 1.520014 0 2 ack 40 ------- 0 1.0 2.0 8 67
+ 1.520014 2 0 tcp 1040 ------- 0 2.0 1.0 17 71
- 1.520014 2 0 tcp 1040 ------- 0 2.0 1.0 17 71
+ 1.520014 2 0 tcp 1040 ------- 0 2.0 1.0 18 72
- 1.520846 2 0 tcp 1040 ------- 0 2.0 1.0 18 72
r 1.521867 1 0 ack 40 ------- 0 1.0 2.0 9 70
+ 1.521867 0 2 ack 40 ------- 0 1.0 2.0 9 70
- 1.521867 0 2 ack 40 ------- 0 1.0 2.0 9 70
r 1.523296 0 1 tcp 1040 ------- 0 2.0 1.0 10 36
+ 1.523296 1 0 ack 40 ------- 0 1.0 2.0 10 73
- 1.523296 1 0 ack 40 ------- 0 1.0 2.0 10 73
- 1.525182 0 1 tcp 1040 ------- 0 3.0 1.1 8 39
r 1.530846 2 0 tcp 1040 ------- 0 2.0 1.0 17 71
+ 1.530846 0 1 tcp 1040 ------- 0 2.0 1.0 17 71
r 1.531678 2 0 tcp 1040 ------- 0 2.0 1.0 18 72
+ 1.531678 0 1 tcp 1040 ------- 0 2.0 1.0 18 72
r 1.531899 0 2 ack 40 ------- 0 1.0 2.0 9 70
+ 1.531899 2 0 tcp 1040 ------- 0 2.0 1.0 19 74
- 1.531899 2 0 tcp 1040 ------- 0 2.0 1.0 19 74
+ 1.531899 2 0 tcp 1040 ------- 0 2.0 1.0 20 75
- 1.532731 2 0 tcp 1040 ------- 0 2.0 1.0 20 75
r 1.533753 1 0 ack 40 ------- 0 1.0 2.0 10 73
+ 1.533753 0 2 ack 40 ------- 0 1.0 2.0 10 73
- 1.533753 0 2 ack 40 ------- 0 1.0 2.0 10 73
r 1.535182 0 1 tcp 1040 ------- 0 3.0 1.1 7 38
+ 1.535182 1 0 ack 40 ------- 0 1.1 3.0 7 76
- 1.535182 1 0 ack 40 ------- 0 1.1 3.0 7 76
- 1.537067 0 1 tcp 1040 ------- 0 3.0 1.1 9 41
r 1.542731 2 0 tcp 1040 ------- 0 2.0 1.0 19 74
+ 1.542731 0 1 tcp 1040 ------- 0 2.0 1.0 19 74
r 1.543563 2 0 tcp 1040 ------- 0 2.0 1.0 20 75
+ 1.543563 0 1 tcp 1040 ------- 0 2.0 1.0 20 75
r 1.543785 0 2 ack 40 ------- 0 1.0 2.0 10 73
+ 1.543785 2 0 tcp 1040 ------- 0 2.0 1.0 21 77
- 1.543785 2 0 tcp 1040 ------- 0 2.0 1.0 21 77
+ 1.543785 2 0 tcp 1040 ------- 0 2.0 1.0 22 78
- 1.544617 2 0 tcp 1040 ------- 0 2.0 1.0 22 78
r 1.545639 1 0 ack 40 ------- 0 1.1 3.0 7 76
+ 1.545639 0 3 ack 40 ------- 0 1.1 3.0 7 76
- 1.545639 0 3 ack 40 ------- 0 1.1 3.0 7 76
r 1.547067 0 1 tcp 1040 ------- 0 3.0 1.1 8 39
+ 1.547067 1 0 ack 40 ------- 0 1.1 3.0 8 79
- 1.547067 1 0 ack 40 ------- 0 1.1 3.0 8 79
- 1.548953 0 1 tcp 1040 ------- 0 3.0 1.1 10 42
r 1.554617 2 0 tcp 1040 ------- 0 2.0 1.0 21 77
+ 1.554617 0 1 tcp 1040 ------- 0 2.0 1.0 21 77
r 1.555449 2 0 tcp 1040 ------- 0 2.0 1.0 22 78
+ 1.555449 0 1 tcp 1040 ------- 0 2.0 1.0 22 78
r 1.555671 0 3 ack 40 ------- 0 1.1 3.0 7 76
+ 1.555671 3 0 tcp 1040 ------- 0 3.0 1.1 15 80
- 1.555671 3 0 tcp 1040 ------- 0 3.0 1.1 15 80
+ 1.555671 3 0 tcp 1040 ------- 0 3.0 1.1 16 81
- 1.556503 3 0 tcp 1040 ------- 0 3.0 1.1 16 81
r 1.557525 1 0 ack 40 ------- 0 1.1 3.0 8 79
+ 1.557525 0 3 ack 40 ------- 0 1.1 3.0 8 79
- 1.557525 0 3 ack 40 ------- 0 1.1 3.0 8 79
r 1.558953 0 1 tcp 1040 ------- 0 3.0 1.1 9 41
+ 1.558953 1 0 ack 40 ------- 0 1.1 3.0 9 82
- 1.558953 1 0 ack 40 ------- 0 1.1 3.0 9 82
- 1.560839 0 1 tcp 1040 ------- 0 2.0 1.0 11 44
r 1.566503 3 0 tcp 1040 ------- 0 3.0 1.1 15 80
+ 1.566503 0 1 tcp 1040 ------- 0 3.0 1.1 15 80
r 1.567335 3 0 tcp 1040 ------- 0 3.0 1.1 16 81
+ 1.567335 0 1 tcp 1040 ------- 0 3.0 1.1 16 81
r 1.567557 0 3 ack 40 ------- 0 1.1 3.0 8 79
+ 1.567557 3 0 tcp 1040 ------- 0 3.0 1.1 17 83
- 1.567557 3 0 tcp 1040 ------- 0 3.0 1.1 17 83
+ 1.567557 3 0 tcp 1040 ------- 0 3.0 1.1 18 84
- 1.568389 3 0 tcp 1040 ------- 0 3.0 1.1 18 84
r 1.56941 1 0 ack 40 ------- 0 1.1 3.0 9 82
+ 1.56941 0 3 ack 40 ------- 0 1.1 3.0 9 82
- 1.56941 0 3 ack 40 ------- 0 1.1 3.0 9 82
r 1.570839 0 1 tcp 1040 ------- 0 3.0 1.1 10 42
+ 1.570839 1 0 ack 40 ------- 0 1.1 3.0 10 85
- 1.570839 1 0 ack 40 ------- 0 1.1 3.0 10 85
- 1.572725 0 1 tcp 1040 ------- 0 2.0 1.0 12 45
r 1.578389 3 0 tcp 1040 ------- 0 3.0 1.1 17 83
+ 1.578389 0 1 tcp 1040 ------- 0 3.0 1.1 17 83
r 1.579221 3 0 tcp 1040 ------- 0 3.0 1.1 18 84
+ 1.579221 0 1 tcp 1040 ------- 0 3.0 1.1 18 84
r 1.579442 0 3 ack 40 ------- 0 1.1 3.0 9 82
+ 1.579442 3 0 tcp 1040 ------- 0 3.0 1.1 19 86
- 1.579442 3 0 tcp 1040 ------- 0 3.0 1.1 19 86
+ 1.579442 3 0 tcp 1040 ------- 0 3.0 1.1 20 87
- 1.580274 3 0 tcp 1040 ------- 0 3.0 1.1 20 87
r 1.581296 1 0 ack 40 ------- 0 1.1 3.0 10 85
+ 1.581296 0 3 ack 40 ------- 0 1.1 3.0 10 85
- 1.581296 0 3 ack 40 ------- 0 1.1 3.0 10 85
r 1.582725 0 1 tcp 1040 ------- 0 2.0 1.0 11 44
+ 1.582725 1 0 ack 40 ------- 0 1.0 2.0 11 88
- 1.582725 1 0 ack 40 ------- 0 1.0 2.0 11 88
- 1.58461 0 1 tcp 1040 ------- 0 2.0 1.0 13 47
r 1.590274 3 0 tcp 1040 ------- 0 3.0 1.1 19 86
+ 1.590274 0 1 tcp 1040 ------- 0 3.0 1.1 19 86
r 1.591106 3 0 tcp 1040 ------- 0 3.0 1.1 20 87
+ 1.591106 0 1 tcp 1040 ------- 0 3.0 1.1 20 87
r 1.591328 0 3 ack 40 ------- 0 1.1 3.0 10 85
+ 1.591328 3 0 tcp 1040 ------- 0 3.0 1.1 21 89
- 1.591328 3 0 tcp 1040 ------- 0 3.0 1.1 21 89
+ 1.591328 3 0 tcp 1040 ------- 0 3.0 1.1 22 90
- 1.59216 3 0 tcp 1040 ------- 0 3.0 1.1 22 90
r 1.593182 1 0 ack 40 ------- 0 1.0 2.0 11 88
+ 1.593182 0 2 ack 40 ------- 0 1.0 2.0 11 88
- 1.593182 0 2 ack 40 ------- 0 1.0 2.0 11 88
r 1.59461 0 1 tcp 1040 ------- 0 2.0 1.0 12 45
+ 1.59461 1 0 ack 40 ------- 0 1.0 2.0 12 91
- 1.59461 1 0 ack 40 ------- 0 1.0 2.0 12 91
- 1.596496 0 1 tcp 1040 ------- 0 2.0 1.0 14 48
r 1.60216 3 0 tcp 1040 ------- 0 3.0 1.1 21 89
+ 1.60216 0 1 tcp 1040 ------- 0 3.0 1.1 21 89
r 1.602992 3 0 tcp 1040 ------- 0 3.0 1.1 22 90
+ 1.602992 0 1 tcp 1040 ------- 0 3.0 1.1 22 90
r 1.603214 0 2 ack 40 ------- 0 1.0 2.0 11 88
+ 1.603214 2 0 tcp 1040 ------- 0 2.0 1.0 23 92
- 1.603214 2 0 tcp 1040 ------- 0 2.0 1.0 23 92
+ 1.603214 2 0 tcp 1040 ------- 0 2.0 1.0 24 93
- 1.604046 2 0 tcp 1040 ------- 0 2.0 1.0 24 93
r 1.605067 1 0 ack 40 ------- 0 1.0 2.0 12 91
+ 1.605067 0 2 ack 40 ------- 0 1.0 2.0 12 91
- 1.605067 0 2 ack 40 ------- 0 1.0 2.0 12 91
r 1.606496 0 1 tcp 1040 ------- 0 2.0 1.0 13 47
+ 1.606496 1 0 ack 40 ------- 0 1.0 2.0 13 94
- 1.606496 1 0 ack 40 ------- 0 1.0 2.0 13 94
- 1.608382 0 1 tcp 1040 ------- 0 4.0 1.2 7 50
r 1.614046 2 0 tcp 1040 ------- 0 2.0 1.0 23 92
+ 1.614046 0 1 tcp 1040 ------- 0 2.0 1.0 23 92
r 1.614878 2 0 tcp 1040 ------- 0 2.0 1.0 24 93
+ 1.614878 0 1 tcp 1040 ------- 0 2.0 1.0 24 93
r 1.615099 0 2 ack 40 ------- 0 1.0 2.0 12 91
+ 1.615099 2 0 tcp 1040 ------- 0 2.0 1.0 25 95
- 1.615099 2 0 tcp 1040 ------- 0 2.0 1.0 25 95
+ 1.615099 2 0 tcp 1040 ------- 0 2.0 1.0 26 96
- 1.615931 2 0 tcp 1040 ------- 0 2.0 1.0 26 96
r 1.616953 1 0 ack 40 ------- 0 1.0 2.0 13 94
+ 1.616953 0 2 ack 40 ------- 0 1.0 2.0 13 94
- 1.616953 0 2 ack 40 ------- 0 1.0 2.0 13 94
r 1.618382 0 1 tcp 1040 ------- 0 2.0 1.0 14 48
+ 1.618382 1 0 ack 40 ------- 0 1.0 2.0 14 97
- 1.618382 1 0 ack 40 ------- 0 1.0 2.0 14 97
- 1.620267 0 1 tcp 1040 ------- 0 4.0 1.2 8 51
r 1.625931 2 0 tcp 1040 ------- 0 2.0 1.0 25 95
+ 1.625931 0 1 tcp 1040 ------- 0 2.0 1.0 25 95
r 1.626763 2 0 tcp 1040 ------- 0 2.0 1.0 26 96
+ 1.626763 0 1 tcp 1040 ------- 0 2.0 1.0 26 96
r 1.626985 0 2 ack 40 ------- 0 1.0 2.0 13 94
+ 1.626985 2 0 tcp 1040 ------- 0 2.0 1.0 27 98
- 1.626985 2 0 tcp 1040 ------- 0 2.0 1.0 27 98
+ 1.626985 2 0 tcp 1040 ------- 0 2.0 1.0 28 99
- 1.627817 2 0 tcp 1040 ------- 0 2.0 1.0 28 99
r 1.628839 1 0 ack 40 ------- 0 1.0 2.0 14 97
+ 1.628839 0 2 ack 40 ------- 0 1.0 2.0 14 97
- 1.628839 0 2 ack 40 ------- 0 1.0 2.0 14 97
r 1.630267 0 1 tcp 1040 ------- 0 4.0 1.2 7 50
+ 1.630267 1 0 ack 40 ------- 0 1.2 4.0 7 100
- 1.630267 1 0 ack 40 ------- 0 1.2 4.0 7 100
- 1.632153 0 1 tcp 1040 ------- 0 4.0 1.2 9 53
r 1.637817 2 0 tcp 1040 ------- 0 2.0 1.0 27 98
+ 1.637817 0 1 tcp 1040 ------- 0 2.0 1.0 27 98
r 1.638649 2 0 tcp 1040 ------- 0 2.0 1.0 28 99
+ 1.638649 0 1 tcp 1040 ------- 0 2.0 1.0 28 99
r 1.638871 0 2 ack 40 ------- 0 1.0 2.0 14 97
+ 1.638871 2 0 tcp 1040 ------- 0 2.0 1.0 29 101
- 1.638871 2 0 tcp 1040 ------- 0 2.0 1.0 29 101
+ 1.638871 2 0 tcp 1040 ------- 0 2.0 1.0 30 102
- 1.639703 2 0 tcp 1040 ------- 0 2.0 1.0 30 102
r 1.640725 1 0 ack 40 ------- 0 1.2 4.0 7 100
+ 1.640725 0 4 ack 40 ------- 0 1.2 4.0 7 100
- 1.640725 0 4 ack 40 ------- 0 1.2 4.0 7 100
r 1.642153 0 1 tcp 1040 ------- 0 4.0 1.2 8 51
+ 1.642153 1 0 ack 40 ------- 0 1.2 4.0 8 103
- 1.642153 1 0 ack 40 ------- 0 1.2 4.0 8 103
- 1.644039 0 1 tcp 1040 ------- 0 4.0 1.2 10 54
r 1.649703 2 0 tcp 1040 ------- 0 2.0 1.0 29 101
+ 1.649703 0 1 tcp 1040 ------- 0 2.0 1.0 29 101
r 1.650535 2 0 tcp 1040 ------- 0 2.0 1.0 30 102
+ 1.650535 0 1 tcp 1040 ------- 0 2.0 1.0 30 102
r 1.650757 0 4 ack 40 ------- 0 1.2 4.0 7 100
+ 1.650757 4 0 tcp 1040 ------- 0 4.0 1.2 15 104
- 1.650757 4 0 tcp 1040 ------- 0 4.0 1.2 15 104
+ 1.650757 4 0 tcp 1040 ------- 0 4.0 1.2 16 105
- 1.651589 4 0 tcp 1040 ------- 0 4.0 1.2 16 105
r 1.65261 1 0 ack 40 ------- 0 1.2 4.0 8 103
+ 1.65261 0 4 ack 40 ------- 0 1.2 4.0 8 103
- 1.65261 0 4 ack 40 ------- 0 1.2 4.0 8 103
r 1.654039 0 1 tcp 1040 ------- 0 4.0 1.2 9 53
+ 1.654039 1 0 ack 40 ------- 0 1.2 4.0 9 106
- 1.654039 1 0 ack 40 ------- 0 1.2 4.0 9 106
- 1.655925 0 1 tcp 1040 ------- 0 3.0 1.1 11 56
r 1.661589 4 0 tcp 1040 ------- 0 4.0 1.2 15 104
+ 1.661589 0 1 tcp 1040 ------- 0 4.0 1.2 15 104
r 1.662421 4 0 tcp 1040 ------- 0 4.0 1.2 16 105
+ 1.662421 0 1 tcp 1040 ------- 0 4.0 1.2 16 105
r 1.662642 0 4 ack 40 ------- 0 1.2 4.0 8 103
+ 1.662642 4 0 tcp 1040 ------- 0 4.0 1.2 17 107
- 1.662642 4 0 tcp 1040 ------- 0 4.0 1.2 17 107
+ 1.662642 4 0 tcp 1040 ------- 0 4.0 1.2 18 108
- 1.663474 4 0 tcp 1040 ------- 0 4.0 1.2 18 108
r 1.664496 1 0 ack 40 ------- 0 1.2 4.0 9 106
+ 1.664496 0 4 ack 40 ------- 0 1.2 4.0 9 106
- 1.664496 0 4 ack 40 ------- 0 1.2 4.0 9 106
r 1.665925 0 1 tcp 1040 ------- 0 4.0 1.2 10 54
+ 1.665925 1 0 ack 40 ------- 0 1.2 4.0 10 109
- 1.665925 1 0 ack 40 ------- 0 1.2 4.0 10 109
- 1.66781 0 1 tcp 1040 ------- 0 3.0 1.1 12 57
r 1.673474 4 0 tcp 1040 ------- 0 4.0 1.2 17 107
+ 1.673474 0 1 tcp 1040 ------- 0 4.0 1.2 17 107
r 1.674306 4 0 tcp 1040 ------- 0 4.0 1.2 18 108
+ 1.674306 0 1 tcp 1040 ------- 0 4.0 1.2 18 108
r 1.674528 0 4 ack 40 ------- 0 1.2 4.0 9 106
+ 1.674528 4 0 tcp 1040 ------- 0 4.0 1.2 19 110
- 1.674528 4 0 tcp 1040 ------- 0 4.0 1.2 19 110
+ 1.674528 4 0 tcp 1040 ------- 0 4.0 1.2 20 111
- 1.67536 4 0 tcp 1040 ------- 0 4.0 1.2 20 111
r 1.676382 1 0 ack 40 ------- 0 1.2 4.0 10 109
+ 1.676382 0 4 ack 40 ------- 0 1.2 4.0 10 109
- 1.676382 0 4 ack 40 ------- 0 1.2 4.0 10 109
r 1.67781 0 1 tcp 1040 ------- 0 3.0 1.1 11 56
+ 1.67781 1 0 ack 40 ------- 0 1.1 3.0 11 112
- 1.67781 1 0 ack 40 ------- 0 1.1 3.0 11 112
- 1.679696 0 1 tcp 1040 ------- 0 3.0 1.1 13 59
r 1.68536 4 0 tcp 1040 ------- 0 4.0 1.2 19 110
+ 1.68536 0 1 tcp 1040 ------- 0 4.0 1.2 19 110
r 1.686192 4 0 tcp 1040 ------- 0 4.0 1.2 20 111
+ 1.686192 0 1 tcp 1040 ------- 0 4.0 1.2 20 111
r 1.686414 0 4 ack 40 ------- 0 1.2 4.0 10 109
+ 1.686414 4 0 tcp 1040 ------- 0 4.0 1.2 21 113
- 1.686414 4 0 tcp 1040 ------- 0 4.0 1.2 21 113
+ 1.686414 4 0 tcp 1040 ------- 0 4.0 1.2 22 114
- 1.687246 4 0 tcp 1040 ------- 0 4.0 1.2 22 114
r 1.688267 1 0 ack 40 ------- 0 1.1 3.0 11 112
+ 1.688267 0 3 ack 40 ------- 0 1.1 3.0 11 112
- 1.688267 0 3 ack 40 ------- 0 1.1 3.0 11 112
r 1.689696 0 1 tcp 1040 ------- 0 3.0 1.1 12 57
+ 1.689696 1 0 ack 40 ------- 0 1.1 3.0 12 115
- 1.689696 1 0 ack 40 ------- 0 1.1 3.0 12 115
- 1.691582 0 1 tcp 1040 ------- 0 3.0 1.1 14 60
r 1.697246 4 0 tcp 1040 ------- 0 4.0 1.2 21 113
+ 1.697246 0 1 tcp 1040 ------- 0 4.0 1.2 21 113
r 1.698078 4 0 tcp 1040 ------- 0 4.0 1.2 22 114
+ 1.698078 0 1 tcp 1040 ------- 0 4.0 1.2 22 114
r 1.698299 0 3 ack 40 ------- 0 1.1 3.0 11 112
+ 1.698299 3 0 tcp 1040 ------- 0 3.0 1.1 23 116
- 1.698299 3 0 tcp 1040 ------- 0 3.0 1.1 23 116
+ 1.698299 3 0 tcp 1040 ------- 0 3.0 1.1 24 117
- 1.699131 3 0 tcp 1040 ------- 0 3.0 1.1 24 117
r 1.700153 1 0 ack 40 ------- 0 1.1 3.0 12 115
+ 1.700153 0 3 ack 40 ------- 0 1.1 3.0 12 115
- 1.700153 0 3 ack 40 ------- 0 1.1 3.0 12 115
r 1.701582 0 1 tcp 1040 ------- 0 3.0 1.1 13 59
+ 1.701582 1 0 ack 40 ------- 0 1.1 3.0 13 118
- 1.701582 1 0 ack 40 ------- 0 1.1 3.0 13 118
- 1.703467 0 1 tcp 1040 ------- 0 4.0 1.2 11 62
r 1.709131 3 0 tcp 1040 ------- 0 3.0 1.1 23 116
+ 1.709131 0 1 tcp 1040 ------- 0 3.0 1.1 23 116
r 1.709963 3 0 tcp 1040 ------- 0 3.0 1.1 24 117
+ 1.709963 0 1 tcp 1040 ------- 0 3.0 1.1 24 117
r 1.710185 0 3 ack 40 ------- 0 1.1 3.0 12 115
+ 1.710185 3 0 tcp 1040 ------- 0 3.0 1.1 25 119
- 1.710185 3 0 tcp 1040 ------- 0 3.0 1.1 25 119
+ 1.710185 3 0 tcp 1040 ------- 0 3.0 1.1 26 120
- 1.711017 3 0 tcp 1040 ------- 0 3.0 1.1 26 120
r 1.712039 1 0 ack 40 ------- 0 1.1 3.0 13 118
+ 1.712039 0 3 ack 40 ------- 0 1.1 3.0 13 118
- 1.712039 0 3 ack 40 ------- 0 1.1 3.0 13 118
r 1.713467 0 1 tcp 1040 ------- 0 3.0 1.1 14 60
+ 1.713467 1 0 ack 40 ------- 0 1.1 3.0 14 121
- 1.713467 1 0 ack 40 ------- 0 1.1 3.0 14 121