+ 0.2 0 2 tcp 40 ------- 0 0.0 3.0 0 0
- 0.2 0 2 tcp 40 ------- 0 0.0 3.0 0 0
+ 0.2 1 2 cbr 210 ------- 0 1.0 3.1 0 1
- 0.2 1 2 cbr 210 ------- 0 1.0 3.1 0 1
+ 0.20375 1 2 cbr 210 ------- 0 1.0 3.1 1 2
- 0.20375 1 2 cbr 210 ------- 0 1.0 3.1 1 2
r 0.205213 0 2 tcp 40 ------- 0 0.0 3.0 0 0
+ 0.205213 2 3 tcp 40 ------- 0 0.0 3.0 0 0
- 0.205213 2 3 tcp 40 ------- 0 0.0 3.0 0 0
r 0.20612 1 2 cbr 210 ------- 0 1.0 3.1 0 1
+ 0.20612 2 3 cbr 210 ------- 0 1.0 3.1 0 1
- 0.20612 2 3 cbr 210 ------- 0 1.0 3.1 0 1
+ 0.2075 1 2 cbr 210 ------- 0 1.0 3.1 2 3
- 0.2075 1 2 cbr 210 ------- 0 1.0 3.1 2 3
r 0.20987 1 2 cbr 210 ------- 0 1.0 3.1 1 2
+ 0.20987 2 3 cbr 210 ------- 0 1.0 3.1 1 2
- 0.20987 2 3 cbr 210 ------- 0 1.0 3.1 1 2
r 0.210427 2 3 tcp 40 ------- 0 0.0 3.0 0 0
+ 0.210427 3 2 ack 40 ------- 0 3.0 0.0 0 4
- 0.210427 3 2 ack 40 ------- 0 3.0 0.0 0 4
+ 0.21125 1 2 cbr 210 ------- 0 1.0 3.1 3 5
- 0.21125 1 2 cbr 210 ------- 0 1.0 3.1 3 5
r 0.21224 2 3 cbr 210 ------- 0 1.0 3.1 0 1
r 0.21362 1 2 cbr 210 ------- 0 1.0 3.1 2 3
+ 0.21362 2 3 cbr 210 ------- 0 1.0 3.1 2 3
- 0.21362 2 3 cbr 210 ------- 0 1.0 3.1 2 3
+ 0.215 1 2 cbr 210 ------- 0 1.0 3.1 4 6
- 0.215 1 2 cbr 210 ------- 0 1.0 3.1 4 6
r 0.21564 3 2 ack 40 ------- 0 3.0 0.0 0 4
+ 0.21564 2 0 ack 40 ------- 0 3.0 0.0 0 4
- 0.21564 2 0 ack 40 ------- 0 3.0 0.0 0 4
r 0.21599 2 3 cbr 210 ------- 0 1.0 3.1 1 2
r 0.21737 1 2 cbr 210 ------- 0 1.0 3.1 3 5
+ 0.21737 2 3 cbr 210 ------- 0 1.0 3.1 3 5
- 0.21737 2 3 cbr 210 ------- 0 1.0 3.1 3 5
+ 0.21875 1 2 cbr 210 ------- 0 1.0 3.1 5 7
- 0.21875 1 2 cbr 210 ------- 0 1.0 3.1 5 7
r 0.21974 2 3 cbr 210 ------- 0 1.0 3.1 2 3
r 0.220853 2 0 ack 40 ------- 0 3.0 0.0 0 4
+ 0.220853 0 2 tcp 1040 ------- 0 0.0 3.0 1 8
- 0.220853 0 2 tcp 1040 ------- 0 0.0 3.0 1 8
+ 0.220853 0 2 tcp 1040 ------- 0 0.0 3.0 2 9
r 0.22112 1 2 cbr 210 ------- 0 1.0 3.1 4 6
+ 0.22112 2 3 cbr 210 ------- 0 1.0 3.1 4 6
- 0.22112 2 3 cbr 210 ------- 0 1.0 3.1 4 6
+ 0.2225 1 2 cbr 210 ------- 0 1.0 3.1 6 10
- 0.2225 1 2 cbr 210 ------- 0 1.0 3.1 6 10
r 0.22349 2 3 cbr 210 ------- 0 1.0 3.1 3 5
r 0.22487 1 2 cbr 210 ------- 0 1.0 3.1 5 7
+ 0.22487 2 3 cbr 210 ------- 0 1.0 3.1 5 7
- 0.22487 2 3 cbr 210 ------- 0 1.0 3.1 5 7
+ 0.22625 1 2 cbr 210 ------- 0 1.0 3.1 7 11
- 0.22625 1 2 cbr 210 ------- 0 1.0 3.1 7 11
- 0.2264 0 2 tcp 1040 ------- 0 0.0 3.0 2 9
r 0.22724 2 3 cbr 210 ------- 0 1.0 3.1 4 6
r 0.22862 1 2 cbr 210 ------- 0 1.0 3.1 6 10
+ 0.22862 2 3 cbr 210 ------- 0 1.0 3.1 6 10
- 0.22862 2 3 cbr 210 ------- 0 1.0 3.1 6 10
+ 0.23 1 2 cbr 210 ------- 0 1.0 3.1 8 12
- 0.23 1 2 cbr 210 ------- 0 1.0 3.1 8 12
r 0.23099 2 3 cbr 210 ------- 0 1.0 3.1 5 7
r 0.2314 0 2 tcp 1040 ------- 0 0.0 3.0 1 8
+ 0.2314 2 3 tcp 1040 ------- 0 0.0 3.0 1 8
- 0.2314 2 3 tcp 1040 ------- 0 0.0 3.0 1 8
r 0.23237 1 2 cbr 210 ------- 0 1.0 3.1 7 11
+ 0.23237 2 3 cbr 210 ------- 0 1.0 3.1 7 11
+ 0.23375 1 2 cbr 210 ------- 0 1.0 3.1 9 13
- 0.23375 1 2 cbr 210 ------- 0 1.0 3.1 9 13
r 0.23474 2 3 cbr 210 ------- 0 1.0 3.1 6 10
r 0.23612 1 2 cbr 210 ------- 0 1.0 3.1 8 12
+ 0.23612 2 3 cbr 210 ------- 0 1.0 3.1 8 12
r 0.236947 0 2 tcp 1040 ------- 0 0.0 3.0 2 9
+ 0.236947 2 3 tcp 1040 ------- 0 0.0 3.0 2 9
- 0.236947 2 3 cbr 210 ------- 0 1.0 3.1 7 11
+ 0.2375 1 2 cbr 210 ------- 0 1.0 3.1 10 14
- 0.2375 1 2 cbr 210 ------- 0 1.0 3.1 10 14
- 0.238067 2 3 cbr 210 ------- 0 1.0 3.1 8 12
- 0.239187 2 3 tcp 1040 ------- 0 0.0 3.0 2 9
r 0.23987 1 2 cbr 210 ------- 0 1.0 3.1 9 13
+ 0.23987 2 3 cbr 210 ------- 0 1.0 3.1 9 13
+ 0.24125 1 2 cbr 210 ------- 0 1.0 3.1 11 15
- 0.24125 1 2 cbr 210 ------- 0 1.0 3.1 11 15
r 0.241947 2 3 tcp 1040 ------- 0 0.0 3.0 1 8
+ 0.241947 3 2 ack 40 ------- 0 3.0 0.0 1 16
- 0.241947 3 2 ack 40 ------- 0 3.0 0.0 1 16
r 0.243067 2 3 cbr 210 ------- 0 1.0 3.1 7 11
r 0.24362 1 2 cbr 210 ------- 0 1.0 3.1 10 14
+ 0.24362 2 3 cbr 210 ------- 0 1.0 3.1 10 14
r 0.244187 2 3 cbr 210 ------- 0 1.0 3.1 8 12
- 0.244733 2 3 cbr 210 ------- 0 1.0 3.1 9 13
+ 0.245 1 2 cbr 210 ------- 0 1.0 3.1 12 17
- 0.245 1 2 cbr 210 ------- 0 1.0 3.1 12 17
- 0.245853 2 3 cbr 210 ------- 0 1.0 3.1 10 14
r 0.24716 3 2 ack 40 ------- 0 3.0 0.0 1 16
+ 0.24716 2 0 ack 40 ------- 0 3.0 0.0 1 16
- 0.24716 2 0 ack 40 ------- 0 3.0 0.0 1 16
r 0.24737 1 2 cbr 210 ------- 0 1.0 3.1 11 15
+ 0.24737 2 3 cbr 210 ------- 0 1.0 3.1 11 15
- 0.24737 2 3 cbr 210 ------- 0 1.0 3.1 11 15
+ 0.24875 1 2 cbr 210 ------- 0 1.0 3.1 13 18
- 0.24875 1 2 cbr 210 ------- 0 1.0 3.1 13 18
r 0.249733 2 3 tcp 1040 ------- 0 0.0 3.0 2 9
+ 0.249733 3 2 ack 40 ------- 0 3.0 0.0 2 19
- 0.249733 3 2 ack 40 ------- 0 3.0 0.0 2 19
r 0.250853 2 3 cbr 210 ------- 0 1.0 3.1 9 13
r 0.25112 1 2 cbr 210 ------- 0 1.0 3.1 12 17
+ 0.25112 2 3 cbr 210 ------- 0 1.0 3.1 12 17
- 0.25112 2 3 cbr 210 ------- 0 1.0 3.1 12 17
r 0.251973 2 3 cbr 210 ------- 0 1.0 3.1 10 14
r 0.252373 2 0 ack 40 ------- 0 3.0 0.0 1 16
+ 0.252373 0 2 tcp 1040 ------- 0 0.0 3.0 3 20
- 0.252373 0 2 tcp 1040 ------- 0 0.0 3.0 3 20
+ 0.252373 0 2 tcp 1040 ------- 0 0.0 3.0 4 21
+ 0.2525 1 2 cbr 210 ------- 0 1.0 3.1 14 22
- 0.2525 1 2 cbr 210 ------- 0 1.0 3.1 14 22
r 0.25349 2 3 cbr 210 ------- 0 1.0 3.1 11 15
r 0.25487 1 2 cbr 210 ------- 0 1.0 3.1 13 18
+ 0.25487 2 3 cbr 210 ------- 0 1.0 3.1 13 18
- 0.25487 2 3 cbr 210 ------- 0 1.0 3.1 13 18
r 0.254947 3 2 ack 40 ------- 0 3.0 0.0 2 19
+ 0.254947 2 0 ack 40 ------- 0 3.0 0.0 2 19
- 0.254947 2 0 ack 40 ------- 0 3.0 0.0 2 19
+ 0.25625 1 2 cbr 210 ------- 0 1.0 3.1 15 23
- 0.25625 1 2 cbr 210 ------- 0 1.0 3.1 15 23
r 0.25724 2 3 cbr 210 ------- 0 1.0 3.1 12 17
- 0.25792 0 2 tcp 1040 ------- 0 0.0 3.0 4 21
r 0.25862 1 2 cbr 210 ------- 0 1.0 3.1 14 22
+ 0.25862 2 3 cbr 210 ------- 0 1.0 3.1 14 22
- 0.25862 2 3 cbr 210 ------- 0 1.0 3.1 14 22
+ 0.26 1 2 cbr 210 ------- 0 1.0 3.1 16 24
- 0.26 1 2 cbr 210 ------- 0 1.0 3.1 16 24
r 0.26016 2 0 ack 40 ------- 0 3.0 0.0 2 19
+ 0.26016 0 2 tcp 1040 ------- 0 0.0 3.0 5 25
+ 0.26016 0 2 tcp 1040 ------- 0 0.0 3.0 6 26
r 0.26099 2 3 cbr 210 ------- 0 1.0 3.1 13 18
r 0.26237 1 2 cbr 210 ------- 0 1.0 3.1 15 23
+ 0.26237 2 3 cbr 210 ------- 0 1.0 3.1 15 23
- 0.26237 2 3 cbr 210 ------- 0 1.0 3.1 15 23
r 0.26292 0 2 tcp 1040 ------- 0 0.0 3.0 3 20
+ 0.26292 2 3 tcp 1040 ------- 0 0.0 3.0 3 20
- 0.263467 0 2 tcp 1040 ------- 0 0.0 3.0 5 25
- 0.26349 2 3 tcp 1040 ------- 0 0.0 3.0 3 20
+ 0.26375 1 2 cbr 210 ------- 0 1.0 3.1 17 27
- 0.26375 1 2 cbr 210 ------- 0 1.0 3.1 17 27
r 0.26474 2 3 cbr 210 ------- 0 1.0 3.1 14 22
r 0.26612 1 2 cbr 210 ------- 0 1.0 3.1 16 24
+ 0.26612 2 3 cbr 210 ------- 0 1.0 3.1 16 24
+ 0.2675 1 2 cbr 210 ------- 0 1.0 3.1 18 28
- 0.2675 1 2 cbr 210 ------- 0 1.0 3.1 18 28
r 0.268467 0 2 tcp 1040 ------- 0 0.0 3.0 4 21
+ 0.268467 2 3 tcp 1040 ------- 0 0.0 3.0 4 21
r 0.26849 2 3 cbr 210 ------- 0 1.0 3.1 15 23
- 0.269013 0 2 tcp 1040 ------- 0 0.0 3.0 6 26
- 0.269037 2 3 cbr 210 ------- 0 1.0 3.1 16 24
r 0.26987 1 2 cbr 210 ------- 0 1.0 3.1 17 27
+ 0.26987 2 3 cbr 210 ------- 0 1.0 3.1 17 27
- 0.270157 2 3 tcp 1040 ------- 0 0.0 3.0 4 21
+ 0.27125 1 2 cbr 210 ------- 0 1.0 3.1 19 29
- 0.27125 1 2 cbr 210 ------- 0 1.0 3.1 19 29
r 0.27362 1 2 cbr 210 ------- 0 1.0 3.1 18 28
+ 0.27362 2 3 cbr 210 ------- 0 1.0 3.1 18 28
r 0.274013 0 2 tcp 1040 ------- 0 0.0 3.0 5 25
+ 0.274013 2 3 tcp 1040 ------- 0 0.0 3.0 5 25
r 0.274037 2 3 tcp 1040 ------- 0 0.0 3.0 3 20
+ 0.274037 3 2 ack 40 ------- 0 3.0 0.0 3 30
- 0.274037 3 2 ack 40 ------- 0 3.0 0.0 3 30
+ 0.275 1 2 cbr 210 ------- 0 1.0 3.1 20 31
- 0.275 1 2 cbr 210 ------- 0 1.0 3.1 20 31
r 0.275157 2 3 cbr 210 ------- 0 1.0 3.1 16 24
- 0.275703 2 3 cbr 210 ------- 0 1.0 3.1 17 27
- 0.276823 2 3 cbr 210 ------- 0 1.0 3.1 18 28
r 0.27737 1 2 cbr 210 ------- 0 1.0 3.1 19 29
+ 0.27737 2 3 cbr 210 ------- 0 1.0 3.1 19 29
- 0.277943 2 3 tcp 1040 ------- 0 0.0 3.0 5 25
+ 0.27875 1 2 cbr 210 ------- 0 1.0 3.1 21 32
- 0.27875 1 2 cbr 210 ------- 0 1.0 3.1 21 32
r 0.27925 3 2 ack 40 ------- 0 3.0 0.0 3 30
+ 0.27925 2 0 ack 40 ------- 0 3.0 0.0 3 30
- 0.27925 2 0 ack 40 ------- 0 3.0 0.0 3 30
r 0.27956 0 2 tcp 1040 ------- 0 0.0 3.0 6 26
+ 0.27956 2 3 tcp 1040 ------- 0 0.0 3.0 6 26
r 0.280703 2 3 tcp 1040 ------- 0 0.0 3.0 4 21
+ 0.280703 3 2 ack 40 ------- 0 3.0 0.0 4 33
- 0.280703 3 2 ack 40 ------- 0 3.0 0.0 4 33
r 0.28112 1 2 cbr 210 ------- 0 1.0 3.1 20 31
+ 0.28112 2 3 cbr 210 ------- 0 1.0 3.1 20 31
r 0.281823 2 3 cbr 210 ------- 0 1.0 3.1 17 27
+ 0.2825 1 2 cbr 210 ------- 0 1.0 3.1 22 34
- 0.2825 1 2 cbr 210 ------- 0 1.0 3.1 22 34
r 0.282943 2 3 cbr 210 ------- 0 1.0 3.1 18 28
- 0.28349 2 3 cbr 210 ------- 0 1.0 3.1 19 29
r 0.284463 2 0 ack 40 ------- 0 3.0 0.0 3 30
+ 0.284463 0 2 tcp 1040 ------- 0 0.0 3.0 7 35
- 0.284463 0 2 tcp 1040 ------- 0 0.0 3.0 7 35
+ 0.284463 0 2 tcp 1040 ------- 0 0.0 3.0 8 36
- 0.28461 2 3 tcp 1040 ------- 0 0.0 3.0 6 26
r 0.28487 1 2 cbr 210 ------- 0 1.0 3.1 21 32
+ 0.28487 2 3 cbr 210 ------- 0 1.0 3.1 21 32
r 0.285917 3 2 ack 40 ------- 0 3.0 0.0 4 33
+ 0.285917 2 0 ack 40 ------- 0 3.0 0.0 4 33
- 0.285917 2 0 ack 40 ------- 0 3.0 0.0 4 33
+ 0.28625 1 2 cbr 210 ------- 0 1.0 3.1 23 37
- 0.28625 1 2 cbr 210 ------- 0 1.0 3.1 23 37
r 0.28849 2 3 tcp 1040 ------- 0 0.0 3.0 5 25
+ 0.28849 3 2 ack 40 ------- 0 3.0 0.0 5 38
- 0.28849 3 2 ack 40 ------- 0 3.0 0.0 5 38
r 0.28862 1 2 cbr 210 ------- 0 1.0 3.1 22 34
+ 0.28862 2 3 cbr 210 ------- 0 1.0 3.1 22 34
r 0.28961 2 3 cbr 210 ------- 0 1.0 3.1 19 29
+ 0.29 1 2 cbr 210 ------- 0 1.0 3.1 24 39
- 0.29 1 2 cbr 210 ------- 0 1.0 3.1 24 39
- 0.29001 0 2 tcp 1040 ------- 0 0.0 3.0 8 36
- 0.290157 2 3 cbr 210 ------- 0 1.0 3.1 20 31
r 0.29113 2 0 ack 40 ------- 0 3.0 0.0 4 33
+ 0.29113 0 2 tcp 1040 ------- 0 0.0 3.0 9 40
+ 0.29113 0 2 tcp 1040 ------- 0 0.0 3.0 10 41
- 0.291277 2 3 cbr 210 ------- 0 1.0 3.1 21 32
r 0.29237 1 2 cbr 210 ------- 0 1.0 3.1 23 37
+ 0.29237 2 3 cbr 210 ------- 0 1.0 3.1 23 37
- 0.292397 2 3 cbr 210 ------- 0 1.0 3.1 22 34
- 0.293517 2 3 cbr 210 ------- 0 1.0 3.1 23 37
r 0.293703 3 2 ack 40 ------- 0 3.0 0.0 5 38
+ 0.293703 2 0 ack 40 ------- 0 3.0 0.0 5 38
- 0.293703 2 0 ack 40 ------- 0 3.0 0.0 5 38
+ 0.29375 1 2 cbr 210 ------- 0 1.0 3.1 25 42
- 0.29375 1 2 cbr 210 ------- 0 1.0 3.1 25 42
r 0.29501 0 2 tcp 1040 ------- 0 0.0 3.0 7 35
+ 0.29501 2 3 tcp 1040 ------- 0 0.0 3.0 7 35
- 0.29501 2 3 tcp 1040 ------- 0 0.0 3.0 7 35
r 0.295157 2 3 tcp 1040 ------- 0 0.0 3.0 6 26
+ 0.295157 3 2 ack 40 ------- 0 3.0 0.0 6 43
- 0.295157 3 2 ack 40 ------- 0 3.0 0.0 6 43
- 0.295557 0 2 tcp 1040 ------- 0 0.0 3.0 9 40
r 0.29612 1 2 cbr 210 ------- 0 1.0 3.1 24 39
+ 0.29612 2 3 cbr 210 ------- 0 1.0 3.1 24 39
r 0.296277 2 3 cbr 210 ------- 0 1.0 3.1 20 31
r 0.297397 2 3 cbr 210 ------- 0 1.0 3.1 21 32
+ 0.2975 1 2 cbr 210 ------- 0 1.0 3.1 26 44
- 0.2975 1 2 cbr 210 ------- 0 1.0 3.1 26 44
r 0.298517 2 3 cbr 210 ------- 0 1.0 3.1 22 34
r 0.298917 2 0 ack 40 ------- 0 3.0 0.0 5 38
+ 0.298917 0 2 tcp 1040 ------- 0 0.0 3.0 11 45
+ 0.298917 0 2 tcp 1040 ------- 0 0.0 3.0 12 46
r 0.299637 2 3 cbr 210 ------- 0 1.0 3.1 23 37
r 0.29987 1 2 cbr 210 ------- 0 1.0 3.1 25 42
+ 0.29987 2 3 cbr 210 ------- 0 1.0 3.1 25 42
r 0.30037 3 2 ack 40 ------- 0 3.0 0.0 6 43
+ 0.30037 2 0 ack 40 ------- 0 3.0 0.0 6 43
- 0.30037 2 0 ack 40 ------- 0 3.0 0.0 6 43
r 0.300557 0 2 tcp 1040 ------- 0 0.0 3.0 8 36
+ 0.300557 2 3 tcp 1040 ------- 0 0.0 3.0 8 36
- 0.300557 2 3 cbr 210 ------- 0 1.0 3.1 24 39
- 0.301103 0 2 tcp 1040 ------- 0 0.0 3.0 10 41
+ 0.30125 1 2 cbr 210 ------- 0 1.0 3.1 27 47
- 0.30125 1 2 cbr 210 ------- 0 1.0 3.1 27 47
- 0.301677 2 3 cbr 210 ------- 0 1.0 3.1 25 42
- 0.302797 2 3 tcp 1040 ------- 0 0.0 3.0 8 36
r 0.30362 1 2 cbr 210 ------- 0 1.0 3.1 26 44
+ 0.30362 2 3 cbr 210 ------- 0 1.0 3.1 26 44
+ 0.305 1 2 cbr 210 ------- 0 1.0 3.1 28 48
- 0.305 1 2 cbr 210 ------- 0 1.0 3.1 28 48
r 0.305557 2 3 tcp 1040 ------- 0 0.0 3.0 7 35
+ 0.305557 3 2 ack 40 ------- 0 3.0 0.0 7 49
- 0.305557 3 2 ack 40 ------- 0 3.0 0.0 7 49
r 0.305583 2 0 ack 40 ------- 0 3.0 0.0 6 43
+ 0.305583 0 2 tcp 1040 ------- 0 0.0 3.0 13 50
+ 0.305583 0 2 tcp 1040 ------- 0 0.0 3.0 14 51
r 0.306103 0 2 tcp 1040 ------- 0 0.0 3.0 9 40
+ 0.306103 2 3 tcp 1040 ------- 0 0.0 3.0 9 40
- 0.30665 0 2 tcp 1040 ------- 0 0.0 3.0 11 45
r 0.306677 2 3 cbr 210 ------- 0 1.0 3.1 24 39
r 0.30737 1 2 cbr 210 ------- 0 1.0 3.1 27 47
+ 0.30737 2 3 cbr 210 ------- 0 1.0 3.1 27 47
r 0.307797 2 3 cbr 210 ------- 0 1.0 3.1 25 42
- 0.308343 2 3 cbr 210 ------- 0 1.0 3.1 26 44
+ 0.30875 1 2 cbr 210 ------- 0 1.0 3.1 29 52
- 0.30875 1 2 cbr 210 ------- 0 1.0 3.1 29 52
- 0.309463 2 3 tcp 1040 ------- 0 0.0 3.0 9 40
r 0.31077 3 2 ack 40 ------- 0 3.0 0.0 7 49
+ 0.31077 2 0 ack 40 ------- 0 3.0 0.0 7 49
- 0.31077 2 0 ack 40 ------- 0 3.0 0.0 7 49
r 0.31112 1 2 cbr 210 ------- 0 1.0 3.1 28 48
+ 0.31112 2 3 cbr 210 ------- 0 1.0 3.1 28 48
r 0.31165 0 2 tcp 1040 ------- 0 0.0 3.0 10 41
+ 0.31165 2 3 tcp 1040 ------- 0 0.0 3.0 10 41
- 0.312197 0 2 tcp 1040 ------- 0 0.0 3.0 12 46
+ 0.3125 1 2 cbr 210 ------- 0 1.0 3.1 30 53
- 0.3125 1 2 cbr 210 ------- 0 1.0 3.1 30 53
r 0.313343 2 3 tcp 1040 ------- 0 0.0 3.0 8 36
+ 0.313343 3 2 ack 40 ------- 0 3.0 0.0 8 54
- 0.313343 3 2 ack 40 ------- 0 3.0 0.0 8 54
r 0.314463 2 3 cbr 210 ------- 0 1.0 3.1 26 44
r 0.31487 1 2 cbr 210 ------- 0 1.0 3.1 29 52
+ 0.31487 2 3 cbr 210 ------- 0 1.0 3.1 29 52
- 0.31501 2 3 cbr 210 ------- 0 1.0 3.1 27 47
r 0.315983 2 0 ack 40 ------- 0 3.0 0.0 7 49
+ 0.315983 0 2 tcp 1040 ------- 0 0.0 3.0 15 55
+ 0.315983 0 2 tcp 1040 ------- 0 0.0 3.0 16 56
- 0.31613 2 3 cbr 210 ------- 0 1.0 3.1 28 48
+ 0.31625 1 2 cbr 210 ------- 0 1.0 3.1 31 57
- 0.31625 1 2 cbr 210 ------- 0 1.0 3.1 31 57
r 0.317197 0 2 tcp 1040 ------- 0 0.0 3.0 11 45
+ 0.317197 2 3 tcp 1040 ------- 0 0.0 3.0 11 45
- 0.31725 2 3 tcp 1040 ------- 0 0.0 3.0 10 41
- 0.317743 0 2 tcp 1040 ------- 0 0.0 3.0 13 50
r 0.318557 3 2 ack 40 ------- 0 3.0 0.0 8 54
+ 0.318557 2 0 ack 40 ------- 0 3.0 0.0 8 54
- 0.318557 2 0 ack 40 ------- 0 3.0 0.0 8 54
r 0.31862 1 2 cbr 210 ------- 0 1.0 3.1 30 53
+ 0.31862 2 3 cbr 210 ------- 0 1.0 3.1 30 53
+ 0.32 1 2 cbr 210 ------- 0 1.0 3.1 32 58
- 0.32 1 2 cbr 210 ------- 0 1.0 3.1 32 58
r 0.32001 2 3 tcp 1040 ------- 0 0.0 3.0 9 40
+ 0.32001 3 2 ack 40 ------- 0 3.0 0.0 9 59
- 0.32001 3 2 ack 40 ------- 0 3.0 0.0 9 59
r 0.32113 2 3 cbr 210 ------- 0 1.0 3.1 27 47
r 0.32225 2 3 cbr 210 ------- 0 1.0 3.1 28 48
r 0.32237 1 2 cbr 210 ------- 0 1.0 3.1 31 57
+ 0.32237 2 3 cbr 210 ------- 0 1.0 3.1 31 57
r 0.322743 0 2 tcp 1040 ------- 0 0.0 3.0 12 46
+ 0.322743 2 3 tcp 1040 ------- 0 0.0 3.0 12 46
d 0.322743 2 3 tcp 1040 ------- 0 0.0 3.0 12 46
- 0.322797 2 3 cbr 210 ------- 0 1.0 3.1 29 52
- 0.32329 0 2 tcp 1040 ------- 0 0.0 3.0 14 51
+ 0.32375 1 2 cbr 210 ------- 0 1.0 3.1 33 60
- 0.32375 1 2 cbr 210 ------- 0 1.0 3.1 33 60
r 0.32377 2 0 ack 40 ------- 0 3.0 0.0 8 54
+ 0.32377 0 2 tcp 1040 ------- 0 0.0 3.0 17 61
+ 0.32377 0 2 tcp 1040 ------- 0 0.0 3.0 18 62
- 0.323917 2 3 tcp 1040 ------- 0 0.0 3.0 11 45
r 0.325223 3 2 ack 40 ------- 0 3.0 0.0 9 59
+ 0.325223 2 0 ack 40 ------- 0 3.0 0.0 9 59
- 0.325223 2 0 ack 40 ------- 0 3.0 0.0 9 59
r 0.32612 1 2 cbr 210 ------- 0 1.0 3.1 32 58
+ 0.32612 2 3 cbr 210 ------- 0 1.0 3.1 32 58
+ 0.3275 1 2 cbr 210 ------- 0 1.0 3.1 34 63
- 0.3275 1 2 cbr 210 ------- 0 1.0 3.1 34 63
r 0.327797 2 3 tcp 1040 ------- 0 0.0 3.0 10 41
+ 0.327797 3 2 ack 40 ------- 0 3.0 0.0 10 64
- 0.327797 3 2 ack 40 ------- 0 3.0 0.0 10 64
r 0.32829 0 2 tcp 1040 ------- 0 0.0 3.0 13 50
+ 0.32829 2 3 tcp 1040 ------- 0 0.0 3.0 13 50
- 0.328837 0 2 tcp 1040 ------- 0 0.0 3.0 15 55
r 0.328917 2 3 cbr 210 ------- 0 1.0 3.1 29 52
- 0.329463 2 3 cbr 210 ------- 0 1.0 3.1 30 53
r 0.32987 1 2 cbr 210 ------- 0 1.0 3.1 33 60
+ 0.32987 2 3 cbr 210 ------- 0 1.0 3.1 33 60
r 0.330437 2 0 ack 40 ------- 0 3.0 0.0 9 59
+ 0.330437 0 2 tcp 1040 ------- 0 0.0 3.0 19 65
+ 0.330437 0 2 tcp 1040 ------- 0 0.0 3.0 20 66
d 0.330437 0 2 tcp 1040 ------- 0 0.0 3.0 20 66
- 0.330583 2 3 cbr 210 ------- 0 1.0 3.1 31 57
+ 0.33125 1 2 cbr 210 ------- 0 1.0 3.1 35 67
- 0.33125 1 2 cbr 210 ------- 0 1.0 3.1 35 67
- 0.331703 2 3 cbr 210 ------- 0 1.0 3.1 32 58
- 0.332823 2 3 tcp 1040 ------- 0 0.0 3.0 13 50
r 0.33301 3 2 ack 40 ------- 0 3.0 0.0 10 64
+ 0.33301 2 0 ack 40 ------- 0 3.0 0.0 10 64
- 0.33301 2 0 ack 40 ------- 0 3.0 0.0 10 64
r 0.33362 1 2 cbr 210 ------- 0 1.0 3.1 34 63
+ 0.33362 2 3 cbr 210 ------- 0 1.0 3.1 34 63
r 0.333837 0 2 tcp 1040 ------- 0 0.0 3.0 14 51
+ 0.333837 2 3 tcp 1040 ------- 0 0.0 3.0 14 51
- 0.334383 0 2 tcp 1040 ------- 0 0.0 3.0 16 56
r 0.334463 2 3 tcp 1040 ------- 0 0.0 3.0 11 45
+ 0.334463 3 2 ack 40 ------- 0 3.0 0.0 11 68
- 0.334463 3 2 ack 40 ------- 0 3.0 0.0 11 68
+ 0.335 1 2 cbr 210 ------- 0 1.0 3.1 36 69
- 0.335 1 2 cbr 210 ------- 0 1.0 3.1 36 69
r 0.335583 2 3 cbr 210 ------- 0 1.0 3.1 30 53
r 0.336703 2 3 cbr 210 ------- 0 1.0 3.1 31 57
r 0.33737 1 2 cbr 210 ------- 0 1.0 3.1 35 67
+ 0.33737 2 3 cbr 210 ------- 0 1.0 3.1 35 67
r 0.337823 2 3 cbr 210 ------- 0 1.0 3.1 32 58
r 0.338223 2 0 ack 40 ------- 0 3.0 0.0 10 64
+ 0.338223 0 2 tcp 1040 ------- 0 0.0 3.0 21 70
+ 0.338223 0 2 tcp 1040 ------- 0 0.0 3.0 22 71
d 0.338223 0 2 tcp 1040 ------- 0 0.0 3.0 22 71
- 0.33837 2 3 cbr 210 ------- 0 1.0 3.1 33 60
+ 0.33875 1 2 cbr 210 ------- 0 1.0 3.1 37 72
- 0.33875 1 2 cbr 210 ------- 0 1.0 3.1 37 72
r 0.339383 0 2 tcp 1040 ------- 0 0.0 3.0 15 55
+ 0.339383 2 3 tcp 1040 ------- 0 0.0 3.0 15 55
- 0.33949 2 3 cbr 210 ------- 0 1.0 3.1 34 63
r 0.339677 3 2 ack 40 ------- 0 3.0 0.0 11 68
+ 0.339677 2 0 ack 40 ------- 0 3.0 0.0 11 68
- 0.339677 2 0 ack 40 ------- 0 3.0 0.0 11 68
- 0.33993 0 2 tcp 1040 ------- 0 0.0 3.0 17 61
- 0.34061 2 3 tcp 1040 ------- 0 0.0 3.0 14 51
r 0.34112 1 2 cbr 210 ------- 0 1.0 3.1 36 69
+ 0.34112 2 3 cbr 210 ------- 0 1.0 3.1 36 69
+ 0.3425 1 2 cbr 210 ------- 0 1.0 3.1 38 73
- 0.3425 1 2 cbr 210 ------- 0 1.0 3.1 38 73
r 0.34337 2 3 tcp 1040 ------- 0 0.0 3.0 13 50
+ 0.34337 3 2 ack 40 ------- 0 3.0 0.0 11 74
- 0.34337 3 2 ack 40 ------- 0 3.0 0.0 11 74
r 0.34449 2 3 cbr 210 ------- 0 1.0 3.1 33 60
r 0.34487 1 2 cbr 210 ------- 0 1.0 3.1 37 72
+ 0.34487 2 3 cbr 210 ------- 0 1.0 3.1 37 72
r 0.34489 2 0 ack 40 ------- 0 3.0 0.0 11 68
+ 0.34489 0 2 tcp 1040 ------- 0 0.0 3.0 23 75
+ 0.34489 0 2 tcp 1040 ------- 0 0.0 3.0 24 76
d 0.34489 0 2 tcp 1040 ------- 0 0.0 3.0 24 76
r 0.34493 0 2 tcp 1040 ------- 0 0.0 3.0 16 56
+ 0.34493 2 3 tcp 1040 ------- 0 0.0 3.0 16 56
d 0.34493 2 3 tcp 1040 ------- 0 0.0 3.0 16 56
- 0.345477 0 2 tcp 1040 ------- 0 0.0 3.0 18 62
r 0.34561 2 3 cbr 210 ------- 0 1.0 3.1 34 63
- 0.346157 2 3 cbr 210 ------- 0 1.0 3.1 35 67
+ 0.34625 1 2 cbr 210 ------- 0 1.0 3.1 39 77
- 0.34625 1 2 cbr 210 ------- 0 1.0 3.1 39 77
- 0.347277 2 3 tcp 1040 ------- 0 0.0 3.0 15 55
r 0.348583 3 2 ack 40 ------- 0 3.0 0.0 11 74
+ 0.348583 2 0 ack 40 ------- 0 3.0 0.0 11 74
- 0.348583 2 0 ack 40 ------- 0 3.0 0.0 11 74
r 0.34862 1 2 cbr 210 ------- 0 1.0 3.1 38 73
+ 0.34862 2 3 cbr 210 ------- 0 1.0 3.1 38 73
+ 0.35 1 2 cbr 210 ------- 0 1.0 3.1 40 78
- 0.35 1 2 cbr 210 ------- 0 1.0 3.1 40 78
r 0.350477 0 2 tcp 1040 ------- 0 0.0 3.0 17 61
+ 0.350477 2 3 tcp 1040 ------- 0 0.0 3.0 17 61
- 0.351023 0 2 tcp 1040 ------- 0 0.0 3.0 19 65
r 0.351157 2 3 tcp 1040 ------- 0 0.0 3.0 14 51
+ 0.351157 3 2 ack 40 ------- 0 3.0 0.0 11 79
- 0.351157 3 2 ack 40 ------- 0 3.0 0.0 11 79
r 0.352277 2 3 cbr 210 ------- 0 1.0 3.1 35 67
r 0.35237 1 2 cbr 210 ------- 0 1.0 3.1 39 77
+ 0.35237 2 3 cbr 210 ------- 0 1.0 3.1 39 77
d 0.35237 2 3 cbr 210 ------- 0 1.0 3.1 39 77
- 0.352823 2 3 cbr 210 ------- 0 1.0 3.1 36 69
+ 0.35375 1 2 cbr 210 ------- 0 1.0 3.1 41 80
- 0.35375 1 2 cbr 210 ------- 0 1.0 3.1 41 80
r 0.353797 2 0 ack 40 ------- 0 3.0 0.0 11 74
+ 0.353797 0 2 tcp 1040 ------- 0 0.0 3.0 25 81
- 0.353943 2 3 cbr 210 ------- 0 1.0 3.1 37 72
- 0.355063 2 3 cbr 210 ------- 0 1.0 3.1 38 73
r 0.356023 0 2 tcp 1040 ------- 0 0.0 3.0 18 62
+ 0.356023 2 3 tcp 1040 ------- 0 0.0 3.0 18 62
r 0.35612 1 2 cbr 210 ------- 0 1.0 3.1 40 78
+ 0.35612 2 3 cbr 210 ------- 0 1.0 3.1 40 78
- 0.356183 2 3 tcp 1040 ------- 0 0.0 3.0 17 61
r 0.35637 3 2 ack 40 ------- 0 3.0 0.0 11 79
+ 0.35637 2 0 ack 40 ------- 0 3.0 0.0 11 79
- 0.35637 2 0 ack 40 ------- 0 3.0 0.0 11 79
- 0.35657 0 2 tcp 1040 ------- 0 0.0 3.0 21 70
+ 0.3575 1 2 cbr 210 ------- 0 1.0 3.1 42 82
- 0.3575 1 2 cbr 210 ------- 0 1.0 3.1 42 82
r 0.357823 2 3 tcp 1040 ------- 0 0.0 3.0 15 55
+ 0.357823 3 2 ack 40 ------- 0 3.0 0.0 11 83
- 0.357823 3 2 ack 40 ------- 0 3.0 0.0 11 83
r 0.358943 2 3 cbr 210 ------- 0 1.0 3.1 36 69
r 0.35987 1 2 cbr 210 ------- 0 1.0 3.1 41 80
+ 0.35987 2 3 cbr 210 ------- 0 1.0 3.1 41 80
r 0.360063 2 3 cbr 210 ------- 0 1.0 3.1 37 72
r 0.361183 2 3 cbr 210 ------- 0 1.0 3.1 38 73
+ 0.36125 1 2 cbr 210 ------- 0 1.0 3.1 43 84
- 0.36125 1 2 cbr 210 ------- 0 1.0 3.1 43 84
r 0.36157 0 2 tcp 1040 ------- 0 0.0 3.0 19 65
+ 0.36157 2 3 tcp 1040 ------- 0 0.0 3.0 19 65
r 0.361583 2 0 ack 40 ------- 0 3.0 0.0 11 79
+ 0.361583 0 2 tcp 1040 ------- 0 0.0 3.0 26 85
- 0.36173 2 3 tcp 1040 ------- 0 0.0 3.0 18 62
- 0.362117 0 2 tcp 1040 ------- 0 0.0 3.0 23 75
r 0.363037 3 2 ack 40 ------- 0 3.0 0.0 11 83
+ 0.363037 2 0 ack 40 ------- 0 3.0 0.0 11 83
- 0.363037 2 0 ack 40 ------- 0 3.0 0.0 11 83
r 0.36362 1 2 cbr 210 ------- 0 1.0 3.1 42 82
+ 0.36362 2 3 cbr 210 ------- 0 1.0 3.1 42 82
+ 0.365 1 2 cbr 210 ------- 0 1.0 3.1 44 86
- 0.365 1 2 cbr 210 ------- 0 1.0 3.1 44 86
r 0.36673 2 3 tcp 1040 ------- 0 0.0 3.0 17 61
+ 0.36673 3 2 ack 40 ------- 0 3.0 0.0 11 87
- 0.36673 3 2 ack 40 ------- 0 3.0 0.0 11 87
r 0.367117 0 2 tcp 1040 ------- 0 0.0 3.0 21 70
+ 0.367117 2 3 tcp 1040 ------- 0 0.0 3.0 21 70
d 0.367117 2 3 tcp 1040 ------- 0 0.0 3.0 21 70
- 0.367277 2 3 cbr 210 ------- 0 1.0 3.1 40 78
r 0.36737 1 2 cbr 210 ------- 0 1.0 3.1 43 84
+ 0.36737 2 3 cbr 210 ------- 0 1.0 3.1 43 84
- 0.367663 0 2 tcp 1040 ------- 0 0.0 3.0 25 81
r 0.36825 2 0 ack 40 ------- 0 3.0 0.0 11 83
+ 0.36825 0 2 tcp 1040 ---A--- 0 0.0 3.0 12 88
- 0.368397 2 3 cbr 210 ------- 0 1.0 3.1 41 80
+ 0.36875 1 2 cbr 210 ------- 0 1.0 3.1 45 89
- 0.36875 1 2 cbr 210 ------- 0 1.0 3.1 45 89
- 0.369517 2 3 tcp 1040 ------- 0 0.0 3.0 19 65
r 0.37112 1 2 cbr 210 ------- 0 1.0 3.1 44 86
+ 0.37112 2 3 cbr 210 ------- 0 1.0 3.1 44 86
r 0.371943 3 2 ack 40 ------- 0 3.0 0.0 11 87
+ 0.371943 2 0 ack 40 ------- 0 3.0 0.0 11 87
- 0.371943 2 0 ack 40 ------- 0 3.0 0.0 11 87
r 0.372277 2 3 tcp 1040 ------- 0 0.0 3.0 18 62
+ 0.372277 3 2 ack 40 ------- 0 3.0 0.0 11 90
- 0.372277 3 2 ack 40 ------- 0 3.0 0.0 11 90
+ 0.3725 1 2 cbr 210 ------- 0 1.0 3.1 46 91
- 0.3725 1 2 cbr 210 ------- 0 1.0 3.1 46 91
r 0.372663 0 2 tcp 1040 ------- 0 0.0 3.0 23 75
+ 0.372663 2 3 tcp 1040 ------- 0 0.0 3.0 23 75
- 0.37321 0 2 tcp 1040 ------- 0 0.0 3.0 26 85
r 0.373397 2 3 cbr 210 ------- 0 1.0 3.1 40 78
r 0.374517 2 3 cbr 210 ------- 0 1.0 3.1 41 80
r 0.37487 1 2 cbr 210 ------- 0 1.0 3.1 45 89
+ 0.37487 2 3 cbr 210 ------- 0 1.0 3.1 45 89
d 0.37487 2 3 cbr 210 ------- 0 1.0 3.1 45 89
- 0.375063 2 3 cbr 210 ------- 0 1.0 3.1 42 82
- 0.376183 2 3 cbr 210 ------- 0 1.0 3.1 43 84
+ 0.37625 1 2 cbr 210 ------- 0 1.0 3.1 47 92
- 0.37625 1 2 cbr 210 ------- 0 1.0 3.1 47 92
r 0.377157 2 0 ack 40 ------- 0 3.0 0.0 11 87
- 0.377303 2 3 cbr 210 ------- 0 1.0 3.1 44 86
r 0.37749 3 2 ack 40 ------- 0 3.0 0.0 11 90
+ 0.37749 2 0 ack 40 ------- 0 3.0 0.0 11 90
- 0.37749 2 0 ack 40 ------- 0 3.0 0.0 11 90
r 0.37821 0 2 tcp 1040 ------- 0 0.0 3.0 25 81
+ 0.37821 2 3 tcp 1040 ------- 0 0.0 3.0 25 81
- 0.378423 2 3 tcp 1040 ------- 0 0.0 3.0 23 75
r 0.37862 1 2 cbr 210 ------- 0 1.0 3.1 46 91
+ 0.37862 2 3 cbr 210 ------- 0 1.0 3.1 46 91
- 0.378757 0 2 tcp 1040 ---A--- 0 0.0 3.0 12 88
+ 0.38 1 2 cbr 210 ------- 0 1.0 3.1 48 93
- 0.38 1 2 cbr 210 ------- 0 1.0 3.1 48 93
r 0.380063 2 3 tcp 1040 ------- 0 0.0 3.0 19 65
+ 0.380063 3 2 ack 40 ------- 0 3.0 0.0 11 94
- 0.380063 3 2 ack 40 ------- 0 3.0 0.0 11 94
r 0.381183 2 3 cbr 210 ------- 0 1.0 3.1 42 82
r 0.382303 2 3 cbr 210 ------- 0 1.0 3.1 43 84
r 0.38237 1 2 cbr 210 ------- 0 1.0 3.1 47 92
+ 0.38237 2 3 cbr 210 ------- 0 1.0 3.1 47 92
r 0.382703 2 0 ack 40 ------- 0 3.0 0.0 11 90
r 0.383423 2 3 cbr 210 ------- 0 1.0 3.1 44 86
+ 0.38375 1 2 cbr 210 ------- 0 1.0 3.1 49 95
- 0.38375 1 2 cbr 210 ------- 0 1.0 3.1 49 95
r 0.383757 0 2 tcp 1040 ------- 0 0.0 3.0 26 85
+ 0.383757 2 3 tcp 1040 ------- 0 0.0 3.0 26 85
- 0.38397 2 3 tcp 1040 ------- 0 0.0 3.0 25 81
r 0.385277 3 2 ack 40 ------- 0 3.0 0.0 11 94
+ 0.385277 2 0 ack 40 ------- 0 3.0 0.0 11 94
- 0.385277 2 0 ack 40 ------- 0 3.0 0.0 11 94
r 0.38612 1 2 cbr 210 ------- 0 1.0 3.1 48 93
+ 0.38612 2 3 cbr 210 ------- 0 1.0 3.1 48 93
+ 0.3875 1 2 cbr 210 ------- 0 1.0 3.1 50 96
- 0.3875 1 2 cbr 210 ------- 0 1.0 3.1 50 96
r 0.38897 2 3 tcp 1040 ------- 0 0.0 3.0 23 75
+ 0.38897 3 2 ack 40 ------- 0 3.0 0.0 11 97
- 0.38897 3 2 ack 40 ------- 0 3.0 0.0 11 97
r 0.389303 0 2 tcp 1040 ---A--- 0 0.0 3.0 12 88
+ 0.389303 2 3 tcp 1040 ---A--- 0 0.0 3.0 12 88
d 0.389303 2 3 tcp 1040 ---A--- 0 0.0 3.0 12 88
- 0.389517 2 3 cbr 210 ------- 0 1.0 3.1 46 91
r 0.38987 1 2 cbr 210 ------- 0 1.0 3.1 49 95
+ 0.38987 2 3 cbr 210 ------- 0 1.0 3.1 49 95
r 0.39049 2 0 ack 40 ------- 0 3.0 0.0 11 94
- 0.390637 2 3 cbr 210 ------- 0 1.0 3.1 47 92
+ 0.39125 1 2 cbr 210 ------- 0 1.0 3.1 51 98
- 0.39125 1 2 cbr 210 ------- 0 1.0 3.1 51 98
- 0.391757 2 3 tcp 1040 ------- 0 0.0 3.0 26 85
r 0.39362 1 2 cbr 210 ------- 0 1.0 3.1 50 96
+ 0.39362 2 3 cbr 210 ------- 0 1.0 3.1 50 96
r 0.394183 3 2 ack 40 ------- 0 3.0 0.0 11 97
+ 0.394183 2 0 ack 40 ------- 0 3.0 0.0 11 97
- 0.394183 2 0 ack 40 ------- 0 3.0 0.0 11 97
r 0.394517 2 3 tcp 1040 ------- 0 0.0 3.0 25 81
+ 0.394517 3 2 ack 40 ------- 0 3.0 0.0 11 99
- 0.394517 3 2 ack 40 ------- 0 3.0 0.0 11 99
+ 0.395 1 2 cbr 210 ------- 0 1.0 3.1 52 100
- 0.395 1 2 cbr 210 ------- 0 1.0 3.1 52 100
r 0.395637 2 3 cbr 210 ------- 0 1.0 3.1 46 91
r 0.396757 2 3 cbr 210 ------- 0 1.0 3.1 47 92
- 0.397303 2 3 cbr 210 ------- 0 1.0 3.1 48 93
r 0.39737 1 2 cbr 210 ------- 0 1.0 3.1 51 98
+ 0.39737 2 3 cbr 210 ------- 0 1.0 3.1 51 98
- 0.398423 2 3 cbr 210 ------- 0 1.0 3.1 49 95
+ 0.39875 1 2 cbr 210 ------- 0 1.0 3.1 53 101
- 0.39875 1 2 cbr 210 ------- 0 1.0 3.1 53 101
r 0.399397 2 0 ack 40 ------- 0 3.0 0.0 11 97
- 0.399543 2 3 cbr 210 ------- 0 1.0 3.1 50 96
r 0.39973 3 2 ack 40 ------- 0 3.0 0.0 11 99
+ 0.39973 2 0 ack 40 ------- 0 3.0 0.0 11 99
- 0.39973 2 0 ack 40 ------- 0 3.0 0.0 11 99
- 0.400663 2 3 cbr 210 ------- 0 1.0 3.1 51 98
r 0.40112 1 2 cbr 210 ------- 0 1.0 3.1 52 100
+ 0.40112 2 3 cbr 210 ------- 0 1.0 3.1 52 100
- 0.401783 2 3 cbr 210 ------- 0 1.0 3.1 52 100
r 0.402303 2 3 tcp 1040 ------- 0 0.0 3.0 26 85
+ 0.402303 3 2 ack 40 ------- 0 3.0 0.0 11 102
- 0.402303 3 2 ack 40 ------- 0 3.0 0.0 11 102
+ 0.4025 1 2 cbr 210 ------- 0 1.0 3.1 54 103
- 0.4025 1 2 cbr 210 ------- 0 1.0 3.1 54 103
r 0.403423 2 3 cbr 210 ------- 0 1.0 3.1 48 93
r 0.404543 2 3 cbr 210 ------- 0 1.0 3.1 49 95
r 0.40487 1 2 cbr 210 ------- 0 1.0 3.1 53 101
+ 0.40487 2 3 cbr 210 ------- 0 1.0 3.1 53 101
- 0.40487 2 3 cbr 210 ------- 0 1.0 3.1 53 101
r 0.404943 2 0 ack 40 ------- 0 3.0 0.0 11 99
r 0.405663 2 3 cbr 210 ------- 0 1.0 3.1 50 96
+ 0.40625 1 2 cbr 210 ------- 0 1.0 3.1 55 104
- 0.40625 1 2 cbr 210 ------- 0 1.0 3.1 55 104
r 0.406783 2 3 cbr 210 ------- 0 1.0 3.1 51 98
r 0.407517 3 2 ack 40 ------- 0 3.0 0.0 11 102
+ 0.407517 2 0 ack 40 ------- 0 3.0 0.0 11 102
- 0.407517 2 0 ack 40 ------- 0 3.0 0.0 11 102
r 0.407903 2 3 cbr 210 ------- 0 1.0 3.1 52 100
r 0.40862 1 2 cbr 210 ------- 0 1.0 3.1 54 103
+ 0.40862 2 3 cbr 210 ------- 0 1.0 3.1 54 103
- 0.40862 2 3 cbr 210 ------- 0 1.0 3.1 54 103
+ 0.41 1 2 cbr 210 ------- 0 1.0 3.1 56 105
- 0.41 1 2 cbr 210 ------- 0 1.0 3.1 56 105
r 0.41099 2 3 cbr 210 ------- 0 1.0 3.1 53 101
r 0.41237 1 2 cbr 210 ------- 0 1.0 3.1 55 104
+ 0.41237 2 3 cbr 210 ------- 0 1.0 3.1 55 104
- 0.41237 2 3 cbr 210 ------- 0 1.0 3.1 55 104
r 0.41273 2 0 ack 40 ------- 0 3.0 0.0 11 102
+ 0.41375 1 2 cbr 210 ------- 0 1.0 3.1 57 106
- 0.41375 1 2 cbr 210 ------- 0 1.0 3.1 57 106
r 0.41474 2 3 cbr 210 ------- 0 1.0 3.1 54 103
r 0.41612 1 2 cbr 210 ------- 0 1.0 3.1 56 105
+ 0.41612 2 3 cbr 210 ------- 0 1.0 3.1 56 105
- 0.41612 2 3 cbr 210 ------- 0 1.0 3.1 56 105
+ 0.4175 1 2 cbr 210 ------- 0 1.0 3.1 58 107
- 0.4175 1 2 cbr 210 ------- 0 1.0 3.1 58 107
r 0.41849 2 3 cbr 210 ------- 0 1.0 3.1 55 104
r 0.41987 1 2 cbr 210 ------- 0 1.0 3.1 57 106
+ 0.41987 2 3 cbr 210 ------- 0 1.0 3.1 57 106
- 0.41987 2 3 cbr 210 ------- 0 1.0 3.1 57 106
+ 0.42125 1 2 cbr 210 ------- 0 1.0 3.1 59 108
- 0.42125 1 2 cbr 210 ------- 0 1.0 3.1 59 108
r 0.42224 2 3 cbr 210 ------- 0 1.0 3.1 56 105
r 0.42362 1 2 cbr 210 ------- 0 1.0 3.1 58 107
+ 0.42362 2 3 cbr 210 ------- 0 1.0 3.1 58 107
- 0.42362 2 3 cbr 210 ------- 0 1.0 3.1 58 107
+ 0.425 1 2 cbr 210 ------- 0 1.0 3.1 60 109
- 0.425 1 2 cbr 210 ------- 0 1.0 3.1 60 109
r 0.42599 2 3 cbr 210 ------- 0 1.0 3.1 57 106
r 0.42737 1 2 cbr 210 ------- 0 1.0 3.1 59 108
+ 0.42737 2 3 cbr 210 ------- 0 1.0 3.1 59 108
- 0.42737 2 3 cbr 210 ------- 0 1.0 3.1 59 108
+ 0.42875 1 2 cbr 210 ------- 0 1.0 3.1 61 110
- 0.42875 1 2 cbr 210 ------- 0 1.0 3.1 61 110
r 0.42974 2 3 cbr 210 ------- 0 1.0 3.1 58 107
r 0.43112 1 2 cbr 210 ------- 0 1.0 3.1 60 109
+ 0.43112 2 3 cbr 210 ------- 0 1.0 3.1 60 109
- 0.43112 2 3 cbr 210 ------- 0 1.0 3.1 60 109
+ 0.4325 1 2 cbr 210 ------- 0 1.0 3.1 62 111
- 0.4325 1 2 cbr 210 ------- 0 1.0 3.1 62 111
r 0.43349 2 3 cbr 210 ------- 0 1.0 3.1 59 108
r 0.43487 1 2 cbr 210 ------- 0 1.0 3.1 61 110
+ 0.43487 2 3 cbr 210 ------- 0 1.0 3.1 61 110
- 0.43487 2 3 cbr 210 ------- 0 1.0 3.1 61 110
+ 0.43625 1 2 cbr 210 ------- 0 1.0 3.1 63 112
- 0.43625 1 2 cbr 210 ------- 0 1.0 3.1 63 112
r 0.43724 2 3 cbr 210 ------- 0 1.0 3.1 60 109
r 0.43862 1 2 cbr 210 ------- 0 1.0 3.1 62 111