s 2.556838879 _1_ AGT  --- 0 cbr 512 [0 0 0 0] ------- [1:0 2:0 32 0] [0] 0 0
r 2.556838879 _1_ RTR  --- 0 cbr 512 [0 0 0 0] ------- [1:0 2:0 32 0] [0] 0 0
s 2.556838879 _1_ RTR  --- 0 AODV 48 [0 0 0 0] ------- [1:255 -1:255 30 0] [0x2 1 1 [2 0] [1 4]] (REQUEST)
s 2.556953879 _1_ MAC  --- 0 AODV 106 [0 ffffffff 1 800] ------- [1:255 -1:255 30 0] [0x2 1 1 [2 0] [1 4]] (REQUEST)
r 2.557802184 _0_ MAC  --- 0 AODV 48 [0 ffffffff 1 800] ------- [1:255 -1:255 30 0] [0x2 1 1 [2 0] [1 4]] (REQUEST)
r 2.557802209 _6_ MAC  --- 0 AODV 48 [0 ffffffff 1 800] ------- [1:255 -1:255 30 0] [0x2 1 1 [2 0] [1 4]] (REQUEST)
r 2.557802264 _2_ MAC  --- 0 AODV 48 [0 ffffffff 1 800] ------- [1:255 -1:255 30 0] [0x2 1 1 [2 0] [1 4]] (REQUEST)
r 2.557802666 _5_ MAC  --- 0 AODV 48 [0 ffffffff 1 800] ------- [1:255 -1:255 30 0] [0x2 1 1 [2 0] [1 4]] (REQUEST)
r 2.557827184 _0_ RTR  --- 0 AODV 48 [0 ffffffff 1 800] ------- [1:255 -1:255 30 0] [0x2 1 1 [2 0] [1 4]] (REQUEST)
r 2.557827209 _6_ RTR  --- 0 AODV 48 [0 ffffffff 1 800] ------- [1:255 -1:255 30 0] [0x2 1 1 [2 0] [1 4]] (REQUEST)
r 2.557827264 _2_ RTR  --- 0 AODV 48 [0 ffffffff 1 800] ------- [1:255 -1:255 30 0] [0x2 1 1 [2 0] [1 4]] (REQUEST)
s 2.557827264 _2_ RTR  --- 0 AODV 44 [0 0 0 0] ------- [2:255 1:255 30 1] [0x4 1 [2 4] 10.000000] (REPLY)
r 2.557827666 _5_ RTR  --- 0 AODV 48 [0 ffffffff 1 800] ------- [1:255 -1:255 30 0] [0x2 1 1 [2 0] [1 4]] (REQUEST)
s 2.558042264 _2_ MAC  --- 0 ARP 86 [0 ffffffff 2 806] ------- [REQUEST 2/2 0/1]
s 2.558708410 _0_ RTR  --- 0 AODV 48 [0 ffffffff 1 800] ------- [0:255 -1:255 29 0] [0x2 2 1 [2 0] [1 4]] (REQUEST)
r 2.558730584 _6_ MAC  --- 0 ARP 28 [0 ffffffff 2 806] ------- [REQUEST 2/2 0/1]
r 2.558730650 _1_ MAC  --- 0 ARP 28 [0 ffffffff 2 806] ------- [REQUEST 2/2 0/1]
r 2.558730901 _3_ MAC  --- 0 ARP 28 [0 ffffffff 2 806] ------- [REQUEST 2/2 0/1]
r 2.558730936 _0_ MAC  --- 0 ARP 28 [0 ffffffff 2 806] ------- [REQUEST 2/2 0/1]
s 2.559023410 _0_ MAC  --- 0 AODV 106 [0 ffffffff 0 800] ------- [0:255 -1:255 29 0] [0x2 2 1 [2 0] [1 4]] (REQUEST)
r 2.559871715 _1_ MAC  --- 0 AODV 48 [0 ffffffff 0 800] ------- [0:255 -1:255 29 0] [0x2 2 1 [2 0] [1 4]] (REQUEST)
r 2.559871900 _6_ MAC  --- 0 AODV 48 [0 ffffffff 0 800] ------- [0:255 -1:255 29 0] [0x2 2 1 [2 0] [1 4]] (REQUEST)
r 2.559872082 _2_ MAC  --- 0 AODV 48 [0 ffffffff 0 800] ------- [0:255 -1:255 29 0] [0x2 2 1 [2 0] [1 4]] (REQUEST)
r 2.559896715 _1_ RTR  --- 0 AODV 48 [0 ffffffff 0 800] ------- [0:255 -1:255 29 0] [0x2 2 1 [2 0] [1 4]] (REQUEST)
r 2.559896900 _6_ RTR  --- 0 AODV 48 [0 ffffffff 0 800] ------- [0:255 -1:255 29 0] [0x2 2 1 [2 0] [1 4]] (REQUEST)
r 2.559897082 _2_ RTR  --- 0 AODV 48 [0 ffffffff 0 800] ------- [0:255 -1:255 29 0] [0x2 2 1 [2 0] [1 4]] (REQUEST)
s 2.560061715 _1_ MAC  --- 0 RTS 44 [52e 2 1 0] 
r 2.560414101 _2_ MAC  --- 0 RTS 44 [52e 2 1 0] 
s 2.560424101 _2_ MAC  --- 0 CTS 38 [3f4 1 0 0] 
r 2.560728486 _1_ MAC  --- 0 CTS 38 [3f4 1 0 0] 
s 2.560738486 _1_ MAC  --- 0 ARP 86 [13a 2 1 806] ------- [REPLY 1/1 2/2]
r 2.561426872 _2_ MAC  --- 0 ARP 28 [13a 2 1 806] ------- [REPLY 1/1 2/2]
s 2.561436872 _2_ MAC  --- 0 ACK 38 [0 1 0 0] 
r 2.561741257 _1_ MAC  --- 0 ACK 38 [0 1 0 0] 
s 2.562050872 _2_ MAC  --- 0 RTS 44 [5ae 1 2 0] 
s 2.562238943 _6_ RTR  --- 0 AODV 48 [0 ffffffff 1 800] ------- [6:255 -1:255 29 0] [0x2 2 1 [2 0] [1 4]] (REQUEST)
r 2.562403257 _1_ MAC  --- 0 RTS 44 [5ae 1 2 0] 
s 2.562413257 _1_ MAC  --- 0 CTS 38 [474 2 0 0] 
r 2.562717643 _2_ MAC  --- 0 CTS 38 [474 2 0 0] 
s 2.562727643 _2_ MAC  --- 0 AODV 102 [13a 1 2 800] ------- [2:255 1:255 30 1] [0x4 1 [2 4] 10.000000] (REPLY)
r 2.563544028 _1_ MAC  --- 0 AODV 44 [13a 1 2 800] ------- [2:255 1:255 30 1] [0x4 1 [2 4] 10.000000] (REPLY)
s 2.563554028 _1_ MAC  --- 0 ACK 38 [0 2 0 0] 
r 2.563569028 _1_ RTR  --- 0 AODV 44 [13a 1 2 800] ------- [2:255 1:255 30 1] [0x4 1 [2 4] 10.000000] (REPLY)
s 2.563569028 _1_ RTR  --- 0 cbr 532 [0 0 0 0] ------- [1:0 2:0 30 2] [0] 0 0
r 2.563858414 _2_ MAC  --- 0 ACK 38 [0 2 0 0] 
s 2.563948359 _6_ MAC  --- 0 AODV 106 [0 ffffffff 6 800] ------- [6:255 -1:255 29 0] [0x2 2 1 [2 0] [1 4]] (REQUEST)
r 2.564796679 _2_ MAC  --- 0 AODV 48 [0 ffffffff 6 800] ------- [6:255 -1:255 29 0] [0x2 2 1 [2 0] [1 4]] (REQUEST)
r 2.564796690 _1_ MAC  --- 0 AODV 48 [0 ffffffff 6 800] ------- [6:255 -1:255 29 0] [0x2 2 1 [2 0] [1 4]] (REQUEST)
r 2.564796848 _0_ MAC  --- 0 AODV 48 [0 ffffffff 6 800] ------- [6:255 -1:255 29 0] [0x2 2 1 [2 0] [1 4]] (REQUEST)
r 2.564821679 _2_ RTR  --- 0 AODV 48 [0 ffffffff 6 800] ------- [6:255 -1:255 29 0] [0x2 2 1 [2 0] [1 4]] (REQUEST)
r 2.564821690 _1_ RTR  --- 0 AODV 48 [0 ffffffff 6 800] ------- [6:255 -1:255 29 0] [0x2 2 1 [2 0] [1 4]] (REQUEST)
r 2.564821848 _0_ RTR  --- 0 AODV 48 [0 ffffffff 6 800] ------- [6:255 -1:255 29 0] [0x2 2 1 [2 0] [1 4]] (REQUEST)
s 2.565346690 _1_ MAC  --- 0 RTS 44 [14ee 2 1 0] 
r 2.565699075 _2_ MAC  --- 0 RTS 44 [14ee 2 1 0] 
s 2.565709075 _2_ MAC  --- 0 CTS 38 [13b4 1 0 0] 
s 2.565819221 _5_ RTR  --- 0 AODV 48 [0 ffffffff 1 800] ------- [5:255 -1:255 29 0] [0x2 2 1 [2 0] [1 4]] (REQUEST)
r 2.566013461 _1_ MAC  --- 0 CTS 38 [13b4 1 0 0] 
s 2.566023461 _1_ MAC  --- 0 cbr 590 [13a 2 1 800] ------- [1:0 2:0 30 2] [0] 0 0
r 2.570743846 _2_ MAC  --- 0 cbr 532 [13a 2 1 800] ------- [1:0 2:0 30 2] [0] 1 0
s 2.570753846 _2_ MAC  --- 0 ACK 38 [0 1 0 0] 
r 2.570768846 _2_ AGT  --- 0 cbr 532 [13a 2 1 800] ------- [1:0 2:0 30 2] [0] 1 0
r 2.571058232 _1_ MAC  --- 0 ACK 38 [0 1 0 0] 
s 2.571712833 _5_ MAC  --- 0 AODV 106 [0 ffffffff 5 800] ------- [5:255 -1:255 29 0] [0x2 2 1 [2 0] [1 4]] (REQUEST)
r 2.572561165 _4_ MAC  --- 0 AODV 48 [0 ffffffff 5 800] ------- [5:255 -1:255 29 0] [0x2 2 1 [2 0] [1 4]] (REQUEST)
r 2.572561620 _1_ MAC  --- 0 AODV 48 [0 ffffffff 5 800] ------- [5:255 -1:255 29 0] [0x2 2 1 [2 0] [1 4]] (REQUEST)
r 2.572586165 _4_ RTR  --- 0 AODV 48 [0 ffffffff 5 800] ------- [5:255 -1:255 29 0] [0x2 2 1 [2 0] [1 4]] (REQUEST)
r 2.572586620 _1_ RTR  --- 0 AODV 48 [0 ffffffff 5 800] ------- [5:255 -1:255 29 0] [0x2 2 1 [2 0] [1 4]] (REQUEST)
s 2.573527554 _4_ RTR  --- 0 AODV 48 [0 ffffffff 5 800] ------- [4:255 -1:255 28 0] [0x2 3 1 [2 0] [1 4]] (REQUEST)
s 2.573922554 _4_ MAC  --- 0 AODV 106 [0 ffffffff 4 800] ------- [4:255 -1:255 28 0] [0x2 3 1 [2 0] [1 4]] (REQUEST)
r 2.574770886 _5_ MAC  --- 0 AODV 48 [0 ffffffff 4 800] ------- [4:255 -1:255 28 0] [0x2 3 1 [2 0] [1 4]] (REQUEST)
r 2.574795886 _5_ RTR  --- 0 AODV 48 [0 ffffffff 4 800] ------- [4:255 -1:255 28 0] [0x2 3 1 [2 0] [1 4]] (REQUEST)
s 3.057178456 _1_ AGT  --- 1 cbr 512 [0 0 0 0] ------- [1:0 2:0 32 0] [1] 0 0
r 3.057178456 _1_ RTR  --- 1 cbr 512 [0 0 0 0] ------- [1:0 2:0 32 0] [1] 0 0
s 3.057178456 _1_ RTR  --- 1 cbr 532 [0 0 0 0] ------- [1:0 2:0 30 2] [1] 0 0
s 3.057273456 _1_ MAC  --- 0 RTS 44 [14ee 2 1 0] 
r 3.057625841 _2_ MAC  --- 0 RTS 44 [14ee 2 1 0] 
s 3.057635841 _2_ MAC  --- 0 CTS 38 [13b4 1 0 0] 
r 3.057940227 _1_ MAC  --- 0 CTS 38 [13b4 1 0 0] 
s 3.057950227 _1_ MAC  --- 1 cbr 590 [13a 2 1 800] ------- [1:0 2:0 30 2] [1] 0 0
r 3.062670612 _2_ MAC  --- 1 cbr 532 [13a 2 1 800] ------- [1:0 2:0 30 2] [1] 1 0
s 3.062680612 _2_ MAC  --- 0 ACK 38 [0 1 0 0] 
r 3.062695612 _2_ AGT  --- 1 cbr 532 [13a 2 1 800] ------- [1:0 2:0 30 2] [1] 1 0
r 3.062984998 _1_ MAC  --- 0 ACK 38 [0 1 0 0] 
s 3.815266405 _1_ AGT  --- 2 cbr 512 [0 0 0 0] ------- [1:0 2:0 32 0] [2] 0 0
r 3.815266405 _1_ RTR  --- 2 cbr 512 [0 0 0 0] ------- [1:0 2:0 32 0] [2] 0 0
s 3.815266405 _1_ RTR  --- 2 cbr 532 [0 0 0 0] ------- [1:0 2:0 30 2] [2] 0 0
s 3.815521405 _1_ MAC  --- 0 RTS 44 [14ee 2 1 0] 
r 3.815873790 _2_ MAC  --- 0 RTS 44 [14ee 2 1 0] 
s 3.815883790 _2_ MAC  --- 0 CTS 38 [13b4 1 0 0] 
r 3.816188176 _1_ MAC  --- 0 CTS 38 [13b4 1 0 0] 
s 3.816198176 _1_ MAC  --- 2 cbr 590 [13a 2 1 800] ------- [1:0 2:0 30 2] [2] 0 0
r 3.820918561 _2_ MAC  --- 2 cbr 532 [13a 2 1 800] ------- [1:0 2:0 30 2] [2] 1 0
s 3.820928561 _2_ MAC  --- 0 ACK 38 [0 1 0 0] 
r 3.820943561 _2_ AGT  --- 2 cbr 532 [13a 2 1 800] ------- [1:0 2:0 30 2] [2] 1 0
r 3.821232947 _1_ MAC  --- 0 ACK 38 [0 1 0 0] 
s 4.781382341 _1_ AGT  --- 3 cbr 512 [0 0 0 0] ------- [1:0 2:0 32 0] [3] 0 0
r 4.781382341 _1_ RTR  --- 3 cbr 512 [0 0 0 0] ------- [1:0 2:0 32 0] [3] 0 0
s 4.781382341 _1_ RTR  --- 3 cbr 532 [0 0 0 0] ------- [1:0 2:0 30 2] [3] 0 0
s 4.781997341 _1_ MAC  --- 0 RTS 44 [14ee 2 1 0] 
r 4.782349727 _2_ MAC  --- 0 RTS 44 [14ee 2 1 0] 
s 4.782359727 _2_ MAC  --- 0 CTS 38 [13b4 1 0 0] 
r 4.782664112 _1_ MAC  --- 0 CTS 38 [13b4 1 0 0] 
s 4.782674112 _1_ MAC  --- 3 cbr 590 [13a 2 1 800] ------- [1:0 2:0 30 2] [3] 0 0
r 4.787394498 _2_ MAC  --- 3 cbr 532 [13a 2 1 800] ------- [1:0 2:0 30 2] [3] 1 0
s 4.787404498 _2_ MAC  --- 0 ACK 38 [0 1 0 0] 
r 4.787419498 _2_ AGT  --- 3 cbr 532 [13a 2 1 800] ------- [1:0 2:0 30 2] [3] 1 0
r 4.787708883 _1_ MAC  --- 0 ACK 38 [0 1 0 0] 
s 6.121207544 _1_ AGT  --- 4 cbr 512 [0 0 0 0] ------- [1:0 2:0 32 0] [4] 0 0
r 6.121207544 _1_ RTR  --- 4 cbr 512 [0 0 0 0] ------- [1:0 2:0 32 0] [4] 0 0
s 6.121207544 _1_ RTR  --- 4 cbr 532 [0 0 0 0] ------- [1:0 2:0 30 2] [4] 0 0
s 6.121582544 _1_ MAC  --- 0 RTS 44 [14ee 2 1 0] 
r 6.121934930 _2_ MAC  --- 0 RTS 44 [14ee 2 1 0] 
s 6.121944930 _2_ MAC  --- 0 CTS 38 [13b4 1 0 0] 
r 6.122249315 _1_ MAC  --- 0 CTS 38 [13b4 1 0 0] 
s 6.122259315 _1_ MAC  --- 4 cbr 590 [13a 2 1 800] ------- [1:0 2:0 30 2] [4] 0 0
r 6.126979701 _2_ MAC  --- 4 cbr 532 [13a 2 1 800] ------- [1:0 2:0 30 2] [4] 1 0
s 6.126989701 _2_ MAC  --- 0 ACK 38 [0 1 0 0] 
r 6.127004701 _2_ AGT  --- 4 cbr 532 [13a 2 1 800] ------- [1:0 2:0 30 2] [4] 1 0
r 6.127294086 _1_ MAC  --- 0 ACK 38 [0 1 0 0] 
s 7.472314096 _1_ AGT  --- 5 cbr 512 [0 0 0 0] ------- [1:0 2:0 32 0] [5] 0 0
r 7.472314096 _1_ RTR  --- 5 cbr 512 [0 0 0 0] ------- [1:0 2:0 32 0] [5] 0 0
s 7.472314096 _1_ RTR  --- 5 cbr 532 [0 0 0 0] ------- [1:0 2:0 30 2] [5] 0 0
s 7.472469096 _1_ MAC  --- 0 RTS 44 [14ee 2 1 0] 
r 7.472821481 _2_ MAC  --- 0 RTS 44 [14ee 2 1 0] 
s 7.472831481 _2_ MAC  --- 0 CTS 38 [13b4 1 0 0] 
r 7.473135867 _1_ MAC  --- 0 CTS 38 [13b4 1 0 0] 
s 7.473145867 _1_ MAC  --- 5 cbr 590 [13a 2 1 800] ------- [1:0 2:0 30 2] [5] 0 0
r 7.477866253 _2_ MAC  --- 5 cbr 532 [13a 2 1 800] ------- [1:0 2:0 30 2] [5] 1 0
s 7.477876253 _2_ MAC  --- 0 ACK 38 [0 1 0 0] 
r 7.477891253 _2_ AGT  --- 5 cbr 532 [13a 2 1 800] ------- [1:0 2:0 30 2] [5] 1 0
r 7.478180638 _1_ MAC  --- 0 ACK 38 [0 1 0 0] 
s 8.877259565 _1_ AGT  --- 6 cbr 512 [0 0 0 0] ------- [1:0 2:0 32 0] [6] 0 0
r 8.877259565 _1_ RTR  --- 6 cbr 512 [0 0 0 0] ------- [1:0 2:0 32 0] [6] 0 0
s 8.877259565 _1_ RTR  --- 6 cbr 532 [0 0 0 0] ------- [1:0 2:0 30 2] [6] 0 0
s 8.877434565 _1_ MAC  --- 0 RTS 44 [14ee 2 1 0] 
r 8.877786951 _2_ MAC  --- 0 RTS 44 [14ee 2 1 0] 
s 8.877796951 _2_ MAC  --- 0 CTS 38 [13b4 1 0 0] 
r 8.878101336 _1_ MAC  --- 0 CTS 38 [13b4 1 0 0] 
s 8.878111336 _1_ MAC  --- 6 cbr 590 [13a 2 1 800] ------- [1:0 2:0 30 2] [6] 0 0
r 8.882831722 _2_ MAC  --- 6 cbr 532 [13a 2 1 800] ------- [1:0 2:0 30 2] [6] 1 0
s 8.882841722 _2_ MAC  --- 0 ACK 38 [0 1 0 0] 
r 8.882856722 _2_ AGT  --- 6 cbr 532 [13a 2 1 800] ------- [1:0 2:0 30 2] [6] 1 0
r 8.883146107 _1_ MAC  --- 0 ACK 38 [0 1 0 0] 
s 9.781467093 _1_ AGT  --- 7 cbr 512 [0 0 0 0] ------- [1:0 2:0 32 0] [7] 0 0
r 9.781467093 _1_ RTR  --- 7 cbr 512 [0 0 0 0] ------- [1:0 2:0 32 0] [7] 0 0
s 9.781467093 _1_ RTR  --- 7 cbr 532 [0 0 0 0] ------- [1:0 2:0 30 2] [7] 0 0
s 9.781742093 _1_ MAC  --- 0 RTS 44 [14ee 2 1 0] 
r 9.782094479 _2_ MAC  --- 0 RTS 44 [14ee 2 1 0] 
s 9.782104479 _2_ MAC  --- 0 CTS 38 [13b4 1 0 0] 
r 9.782408864 _1_ MAC  --- 0 CTS 38 [13b4 1 0 0] 
s 9.782418864 _1_ MAC  --- 7 cbr 590 [13a 2 1 800] ------- [1:0 2:0 30 2] [7] 0 0
r 9.787139250 _2_ MAC  --- 7 cbr 532 [13a 2 1 800] ------- [1:0 2:0 30 2] [7] 1 0
s 9.787149250 _2_ MAC  --- 0 ACK 38 [0 1 0 0] 
r 9.787164250 _2_ AGT  --- 7 cbr 532 [13a 2 1 800] ------- [1:0 2:0 30 2] [7] 1 0
r 9.787453635 _1_ MAC  --- 0 ACK 38 [0 1 0 0] 
s 11.227732046 _1_ AGT  --- 8 cbr 512 [0 0 0 0] ------- [1:0 2:0 32 0] [8] 0 0
r 11.227732046 _1_ RTR  --- 8 cbr 512 [0 0 0 0] ------- [1:0 2:0 32 0] [8] 0 0
s 11.227732046 _1_ RTR  --- 8 cbr 532 [0 0 0 0] ------- [1:0 2:0 30 2] [8] 0 0
s 11.227927046 _1_ MAC  --- 0 RTS 44 [14ee 2 1 0] 
r 11.228279432 _2_ MAC  --- 0 RTS 44 [14ee 2 1 0] 
s 11.228289432 _2_ MAC  --- 0 CTS 38 [13b4 1 0 0] 
r 11.228593817 _1_ MAC  --- 0 CTS 38 [13b4 1 0 0] 
s 11.228603817 _1_ MAC  --- 8 cbr 590 [13a 2 1 800] ------- [1:0 2:0 30 2] [8] 0 0
r 11.233324203 _2_ MAC  --- 8 cbr 532 [13a 2 1 800] ------- [1:0 2:0 30 2] [8] 1 0
s 11.233334203 _2_ MAC  --- 0 ACK 38 [0 1 0 0] 
r 11.233349203 _2_ AGT  --- 8 cbr 532 [13a 2 1 800] ------- [1:0 2:0 30 2] [8] 1 0
r 11.233638589 _1_ MAC  --- 0 ACK 38 [0 1 0 0] 
s 11.786134674 _1_ AGT  --- 9 cbr 512 [0 0 0 0] ------- [1:0 2:0 32 0] [9] 0 0
r 11.786134674 _1_ RTR  --- 9 cbr 512 [0 0 0 0] ------- [1:0 2:0 32 0] [9] 0 0
s 11.786134674 _1_ RTR  --- 9 cbr 532 [0 0 0 0] ------- [1:0 2:0 30 2] [9] 0 0
s 11.786489674 _1_ MAC  --- 0 RTS 44 [14ee 2 1 0] 
r 11.786842059 _2_ MAC  --- 0 RTS 44 [14ee 2 1 0] 
s 11.786852059 _2_ MAC  --- 0 CTS 38 [13b4 1 0 0] 
r 11.787156445 _1_ MAC  --- 0 CTS 38 [13b4 1 0 0] 
s 11.787166445 _1_ MAC  --- 9 cbr 590 [13a 2 1 800] ------- [1:0 2:0 30 2] [9] 0 0
r 11.791886831 _2_ MAC  --- 9 cbr 532 [13a 2 1 800] ------- [1:0 2:0 30 2] [9] 1 0
s 11.791896831 _2_ MAC  --- 0 ACK 38 [0 1 0 0] 
r 11.791911831 _2_ AGT  --- 9 cbr 532 [13a 2 1 800] ------- [1:0 2:0 30 2] [9] 1 0
r 11.792201216 _1_ MAC  --- 0 ACK 38 [0 1 0 0] 
s 12.621797432 _1_ AGT  --- 10 cbr 512 [0 0 0 0] ------- [1:0 2:0 32 0] [10] 0 0
r 12.621797432 _1_ RTR  --- 10 cbr 512 [0 0 0 0] ------- [1:0 2:0 32 0] [10] 0 0
s 12.621797432 _1_ RTR  --- 10 cbr 532 [0 0 0 0] ------- [1:0 2:0 30 2] [10] 0 0
s 12.622352432 _1_ MAC  --- 0 RTS 44 [14ee 2 1 0] 
r 12.622704818 _2_ MAC  --- 0 RTS 44 [14ee 2 1 0] 
s 12.622714818 _2_ MAC  --- 0 CTS 38 [13b4 1 0 0] 
r 12.623019203 _1_ MAC  --- 0 CTS 38 [13b4 1 0 0] 
s 12.623029203 _1_ MAC  --- 10 cbr 590 [13a 2 1 800] ------- [1:0 2:0 30 2] [10] 0 0
r 12.627749589 _2_ MAC  --- 10 cbr 532 [13a 2 1 800] ------- [1:0 2:0 30 2] [10] 1 0
s 12.627759589 _2_ MAC  --- 0 ACK 38 [0 1 0 0] 
r 12.627774589 _2_ AGT  --- 10 cbr 532 [13a 2 1 800] ------- [1:0 2:0 30 2] [10] 1 0
r 12.628063974 _1_ MAC  --- 0 ACK 38 [0 1 0 0] 
s 13.378791172 _1_ AGT  --- 11 cbr 512 [0 0 0 0] ------- [1:0 2:0 32 0] [11] 0 0
r 13.378791172 _1_ RTR  --- 11 cbr 512 [0 0 0 0] ------- [1:0 2:0 32 0] [11] 0 0
s 13.378791172 _1_ RTR  --- 11 cbr 532 [0 0 0 0] ------- [1:0 2:0 30 2] [11] 0 0
s 13.379186172 _1_ MAC  --- 0 RTS 44 [14ee 2 1 0] 
r 13.379538557 _2_ MAC  --- 0 RTS 44 [14ee 2 1 0] 
s 13.379548557 _2_ MAC  --- 0 CTS 38 [13b4 1 0 0] 
r 13.379852943 _1_ MAC  --- 0 CTS 38 [13b4 1 0 0] 
s 13.379862943 _1_ MAC  --- 11 cbr 590 [13a 2 1 800] ------- [1:0 2:0 30 2] [11] 0 0
r 13.384583328 _2_ MAC  --- 11 cbr 532 [13a 2 1 800] ------- [1:0 2:0 30 2] [11] 1 0
s 13.384593328 _2_ MAC  --- 0 ACK 38 [0 1 0 0] 
r 13.384608328 _2_ AGT  --- 11 cbr 532 [13a 2 1 800] ------- [1:0 2:0 30 2] [11] 1 0
r 13.384897714 _1_ MAC  --- 0 ACK 38 [0 1 0 0] 
s 14.755446845 _1_ AGT  --- 12 cbr 512 [0 0 0 0] ------- [1:0 2:0 32 0] [12] 0 0
r 14.755446845 _1_ RTR  --- 12 cbr 512 [0 0 0 0] ------- [1:0 2:0 32 0] [12] 0 0
s 14.755446845 _1_ RTR  --- 12 cbr 532 [0 0 0 0] ------- [1:0 2:0 30 2] [12] 0 0
s 14.755601845 _1_ MAC  --- 0 RTS 44 [14ee 2 1 0] 
r 14.755954231 _2_ MAC  --- 0 RTS 44 [14ee 2 1 0] 
s 14.755964231 _2_ MAC  --- 0 CTS 38 [13b4 1 0 0] 
r 14.756268616 _1_ MAC  --- 0 CTS 38 [13b4 1 0 0] 
s 14.756278616 _1_ MAC  --- 12 cbr 590 [13a 2 1 800] ------- [1:0 2:0 30 2] [12] 0 0
r 14.760999002 _2_ MAC  --- 12 cbr 532 [13a 2 1 800] ------- [1:0 2:0 30 2] [12] 1 0
s 14.761009002 _2_ MAC  --- 0 ACK 38 [0 1 0 0] 
r 14.761024002 _2_ AGT  --- 12 cbr 532 [13a 2 1 800] ------- [1:0 2:0 30 2] [12] 1 0
r 14.761313387 _1_ MAC  --- 0 ACK 38 [0 1 0 0] 
s 15.681134123 _1_ AGT  --- 13 cbr 512 [0 0 0 0] ------- [1:0 2:0 32 0] [13] 0 0
r 15.681134123 _1_ RTR  --- 13 cbr 512 [0 0 0 0] ------- [1:0 2:0 32 0] [13] 0 0
s 15.681134123 _1_ RTR  --- 13 cbr 532 [0 0 0 0] ------- [1:0 2:0 30 2] [13] 0 0
s 15.681449123 _1_ MAC  --- 0 RTS 44 [14ee 2 1 0] 
r 15.681801509 _2_ MAC  --- 0 RTS 44 [14ee 2 1 0] 
s 15.681811509 _2_ MAC  --- 0 CTS 38 [13b4 1 0 0] 
r 15.682115894 _1_ MAC  --- 0 CTS 38 [13b4 1 0 0] 
s 15.682125894 _1_ MAC  --- 13 cbr 590 [13a 2 1 800] ------- [1:0 2:0 30 2] [13] 0 0
r 15.686846280 _2_ MAC  --- 13 cbr 532 [13a 2 1 800] ------- [1:0 2:0 30 2] [13] 1 0
s 15.686856280 _2_ MAC  --- 0 ACK 38 [0 1 0 0] 
r 15.686871280 _2_ AGT  --- 13 cbr 532 [13a 2 1 800] ------- [1:0 2:0 30 2] [13] 1 0
r 15.687160665 _1_ MAC  --- 0 ACK 38 [0 1 0 0] 
s 16.367348377 _1_ AGT  --- 14 cbr 512 [0 0 0 0] ------- [1:0 2:0 32 0] [14] 0 0
r 16.367348377 _1_ RTR  --- 14 cbr 512 [0 0 0 0] ------- [1:0 2:0 32 0] [14] 0 0
s 16.367348377 _1_ RTR  --- 14 cbr 532 [0 0 0 0] ------- [1:0 2:0 30 2] [14] 0 0
s 16.367443377 _1_ MAC  --- 0 RTS 44 [14ee 2 1 0] 
r 16.367795762 _2_ MAC  --- 0 RTS 44 [14ee 2 1 0] 
s 16.367805762 _2_ MAC  --- 0 CTS 38 [13b4 1 0 0] 
r 16.368110148 _1_ MAC  --- 0 CTS 38 [13b4 1 0 0] 
s 16.368120148 _1_ MAC  --- 14 cbr 590 [13a 2 1 800] ------- [1:0 2:0 30 2] [14] 0 0
r 16.372840533 _2_ MAC  --- 14 cbr 532 [13a 2 1 800] ------- [1:0 2:0 30 2] [14] 1 0
s 16.372850533 _2_ MAC  --- 0 ACK 38 [0 1 0 0] 
r 16.372865533 _2_ AGT  --- 14 cbr 532 [13a 2 1 800] ------- [1:0 2:0 30 2] [14] 1 0
r 16.373154919 _1_ MAC  --- 0 ACK 38 [0 1 0 0] 
s 17.640044114 _1_ AGT  --- 15 cbr 512 [0 0 0 0] ------- [1:0 2:0 32 0] [15] 0 0
r 17.640044114 _1_ RTR  --- 15 cbr 512 [0 0 0 0] ------- [1:0 2:0 32 0] [15] 0 0
s 17.640044114 _1_ RTR  --- 15 cbr 532 [0 0 0 0] ------- [1:0 2:0 30 2] [15] 0 0
s 17.640239114 _1_ MAC  --- 0 RTS 44 [14ee 2 1 0] 
r 17.640591499 _2_ MAC  --- 0 RTS 44 [14ee 2 1 0] 
s 17.640601499 _2_ MAC  --- 0 CTS 38 [13b4 1 0 0] 
r 17.640905885 _1_ MAC  --- 0 CTS 38 [13b4 1 0 0] 
s 17.640915885 _1_ MAC  --- 15 cbr 590 [13a 2 1 800] ------- [1:0 2:0 30 2] [15] 0 0
r 17.645636271 _2_ MAC  --- 15 cbr 532 [13a 2 1 800] ------- [1:0 2:0 30 2] [15] 1 0
s 17.645646271 _2_ MAC  --- 0 ACK 38 [0 1 0 0] 
r 17.645661271 _2_ AGT  --- 15 cbr 532 [13a 2 1 800] ------- [1:0 2:0 30 2] [15] 1 0
r 17.645950656 _1_ MAC  --- 0 ACK 38 [0 1 0 0] 
s 18.318771964 _1_ AGT  --- 16 cbr 512 [0 0 0 0] ------- [1:0 2:0 32 0] [16] 0 0
r 18.318771964 _1_ RTR  --- 16 cbr 512 [0 0 0 0] ------- [1:0 2:0 32 0] [16] 0 0
s 18.318771964 _1_ RTR  --- 16 cbr 532 [0 0 0 0] ------- [1:0 2:0 30 2] [16] 0 0
s 18.319306964 _1_ MAC  --- 0 RTS 44 [14ee 2 1 0] 
r 18.319659349 _2_ MAC  --- 0 RTS 44 [14ee 2 1 0] 
s 18.319669349 _2_ MAC  --- 0 CTS 38 [13b4 1 0 0] 
r 18.319973735 _1_ MAC  --- 0 CTS 38 [13b4 1 0 0] 
s 18.319983735 _1_ MAC  --- 16 cbr 590 [13a 2 1 800] ------- [1:0 2:0 30 2] [16] 0 0
r 18.324704120 _2_ MAC  --- 16 cbr 532 [13a 2 1 800] ------- [1:0 2:0 30 2] [16] 1 0
s 18.324714120 _2_ MAC  --- 0 ACK 38 [0 1 0 0] 
r 18.324729120 _2_ AGT  --- 16 cbr 532 [13a 2 1 800] ------- [1:0 2:0 30 2] [16] 1 0
r 18.325018506 _1_ MAC  --- 0 ACK 38 [0 1 0 0] 
s 19.310493667 _1_ AGT  --- 17 cbr 512 [0 0 0 0] ------- [1:0 2:0 32 0] [17] 0 0
r 19.310493667 _1_ RTR  --- 17 cbr 512 [0 0 0 0] ------- [1:0 2:0 32 0] [17] 0 0
s 19.310493667 _1_ RTR  --- 17 cbr 532 [0 0 0 0] ------- [1:0 2:0 30 2] [17] 0 0
s 19.310668667 _1_ MAC  --- 0 RTS 44 [14ee 2 1 0] 
r 19.311021053 _2_ MAC  --- 0 RTS 44 [14ee 2 1 0] 
s 19.311031053 _2_ MAC  --- 0 CTS 38 [13b4 1 0 0] 
r 19.311335438 _1_ MAC  --- 0 CTS 38 [13b4 1 0 0] 
s 19.311345438 _1_ MAC  --- 17 cbr 590 [13a 2 1 800] ------- [1:0 2:0 30 2] [17] 0 0
r 19.316065824 _2_ MAC  --- 17 cbr 532 [13a 2 1 800] ------- [1:0 2:0 30 2] [17] 1 0
s 19.316075824 _2_ MAC  --- 0 ACK 38 [0 1 0 0] 
r 19.316090824 _2_ AGT  --- 17 cbr 532 [13a 2 1 800] ------- [1:0 2:0 30 2] [17] 1 0
r 19.316380209 _1_ MAC  --- 0 ACK 38 [0 1 0 0] 
s 20.343392219 _1_ AGT  --- 18 cbr 512 [0 0 0 0] ------- [1:0 2:0 32 0] [18] 0 0
r 20.343392219 _1_ RTR  --- 18 cbr 512 [0 0 0 0] ------- [1:0 2:0 32 0] [18] 0 0
s 20.343392219 _1_ RTR  --- 18 cbr 532 [0 0 0 0] ------- [1:0 2:0 30 2] [18] 0 0
s 20.343667219 _1_ MAC  --- 0 RTS 44 [14ee 2 1 0] 
r 20.344019605 _2_ MAC  --- 0 RTS 44 [14ee 2 1 0] 
s 20.344029605 _2_ MAC  --- 0 CTS 38 [13b4 1 0 0] 
r 20.344333990 _1_ MAC  --- 0 CTS 38 [13b4 1 0 0] 
s 20.344343990 _1_ MAC  --- 18 cbr 590 [13a 2 1 800] ------- [1:0 2:0 30 2] [18] 0 0
r 20.349064376 _2_ MAC  --- 18 cbr 532 [13a 2 1 800] ------- [1:0 2:0 30 2] [18] 1 0
s 20.349074376 _2_ MAC  --- 0 ACK 38 [0 1 0 0] 
r 20.349089376 _2_ AGT  --- 18 cbr 532 [13a 2 1 800] ------- [1:0 2:0 30 2] [18] 1 0
r 20.349378761 _1_ MAC  --- 0 ACK 38 [0 1 0 0] 
s 20.931592365 _1_ AGT  --- 19 cbr 512 [0 0 0 0] ------- [1:0 2:0 32 0] [19] 0 0
r 20.931592365 _1_ RTR  --- 19 cbr 512 [0 0 0 0] ------- [1:0 2:0 32 0] [19] 0 0
s 20.931592365 _1_ RTR  --- 19 cbr 532 [0 0 0 0] ------- [1:0 2:0 30 2] [19] 0 0
s 20.932267365 _1_ MAC  --- 0 RTS 44 [14ee 2 1 0] 
r 20.932619751 _2_ MAC  --- 0 RTS 44 [14ee 2 1 0] 
s 20.932629751 _2_ MAC  --- 0 CTS 38 [13b4 1 0 0] 
r 20.932934136 _1_ MAC  --- 0 CTS 38 [13b4 1 0 0] 
s 20.932944136 _1_ MAC  --- 19 cbr 590 [13a 2 1 800] ------- [1:0 2:0 30 2] [19] 0 0
r 20.937664522 _2_ MAC  --- 19 cbr 532 [13a 2 1 800] ------- [1:0 2:0 30 2] [19] 1 0
s 20.937674522 _2_ MAC  --- 0 ACK 38 [0 1 0 0] 
r 20.937689522 _2_ AGT  --- 19 cbr 532 [13a 2 1 800] ------- [1:0 2:0 30 2] [19] 1 0
r 20.937978907 _1_ MAC  --- 0 ACK 38 [0 1 0 0] 
s 22.159634137 _1_ AGT  --- 20 cbr 512 [0 0 0 0] ------- [1:0 2:0 32 0] [20] 0 0
r 22.159634137 _1_ RTR  --- 20 cbr 512 [0 0 0 0] ------- [1:0 2:0 32 0] [20] 0 0
s 22.159634137 _1_ RTR  --- 20 cbr 532 [0 0 0 0] ------- [1:0 2:0 30 2] [20] 0 0
s 22.160289137 _1_ MAC  --- 0 RTS 44 [14ee 2 1 0] 
r 22.160641522 _2_ MAC  --- 0 RTS 44 [14ee 2 1 0] 
s 22.160651522 _2_ MAC  --- 0 CTS 38 [13b4 1 0 0] 
r 22.160955908 _1_ MAC  --- 0 CTS 38 [13b4 1 0 0] 
s 22.160965908 _1_ MAC  --- 20 cbr 590 [13a 2 1 800] ------- [1:0 2:0 30 2] [20] 0 0
r 22.165686293 _2_ MAC  --- 20 cbr 532 [13a 2 1 800] ------- [1:0 2:0 30 2] [20] 1 0
s 22.165696293 _2_ MAC  --- 0 ACK 38 [0 1 0 0] 
r 22.165711293 _2_ AGT  --- 20 cbr 532 [13a 2 1 800] ------- [1:0 2:0 30 2] [20] 1 0
r 22.166000679 _1_ MAC  --- 0 ACK 38 [0 1 0 0] 
s 23.395474666 _1_ AGT  --- 21 cbr 512 [0 0 0 0] ------- [1:0 2:0 32 0] [21] 0 0
r 23.395474666 _1_ RTR  --- 21 cbr 512 [0 0 0 0] ------- [1:0 2:0 32 0] [21] 0 0
s 23.395474666 _1_ RTR  --- 21 cbr 532 [0 0 0 0] ------- [1:0 2:0 30 2] [21] 0 0
s 23.395989666 _1_ MAC  --- 0 RTS 44 [14ee 2 1 0] 
r 23.396342051 _2_ MAC  --- 0 RTS 44 [14ee 2 1 0] 
s 23.396352051 _2_ MAC  --- 0 CTS 38 [13b4 1 0 0] 
r 23.396656437 _1_ MAC  --- 0 CTS 38 [13b4 1 0 0] 
s 23.396666437 _1_ MAC  --- 21 cbr 590 [13a 2 1 800] ------- [1:0 2:0 30 2] [21] 0 0
r 23.401386822 _2_ MAC  --- 21 cbr 532 [13a 2 1 800] ------- [1:0 2:0 30 2] [21] 1 0
s 23.401396822 _2_ MAC  --- 0 ACK 38 [0 1 0 0] 
r 23.401411822 _2_ AGT  --- 21 cbr 532 [13a 2 1 800] ------- [1:0 2:0 30 2] [21] 1 0
r 23.401701208 _1_ MAC  --- 0 ACK 38 [0 1 0 0] 
s 24.453883253 _1_ AGT  --- 22 cbr 512 [0 0 0 0] ------- [1:0 2:0 32 0] [22] 0 0
r 24.453883253 _1_ RTR  --- 22 cbr 512 [0 0 0 0] ------- [1:0 2:0 32 0] [22] 0 0
s 24.453883253 _1_ RTR  --- 22 cbr 532 [0 0 0 0] ------- [1:0 2:0 30 2] [22] 0 0
s 24.454258253 _1_ MAC  --- 0 RTS 44 [14ee 2 1 0] 
r 24.454610638 _2_ MAC  --- 0 RTS 44 [14ee 2 1 0] 
s 24.454620638 _2_ MAC  --- 0 CTS 38 [13b4 1 0 0] 
r 24.454925024 _1_ MAC  --- 0 CTS 38 [13b4 1 0 0] 
s 24.454935024 _1_ MAC  --- 22 cbr 590 [13a 2 1 800] ------- [1:0 2:0 30 2] [22] 0 0
r 24.459655410 _2_ MAC  --- 22 cbr 532 [13a 2 1 800] ------- [1:0 2:0 30 2] [22] 1 0
s 24.459665410 _2_ MAC  --- 0 ACK 38 [0 1 0 0] 
r 24.459680410 _2_ AGT  --- 22 cbr 532 [13a 2 1 800] ------- [1:0 2:0 30 2] [22] 1 0
r 24.459969795 _1_ MAC  --- 0 ACK 38 [0 1 0 0] 
s 25.617409166 _1_ AGT  --- 23 cbr 512 [0 0 0 0] ------- [1:0 2:0 32 0] [23] 0 0
r 25.617409166 _1_ RTR  --- 23 cbr 512 [0 0 0 0] ------- [1:0 2:0 32 0] [23] 0 0
s 25.617409166 _1_ RTR  --- 23 cbr 532 [0 0 0 0] ------- [1:0 2:0 30 2] [23] 0 0
s 25.617524166 _1_ MAC  --- 0 RTS 44 [14ee 2 1 0] 
r 25.617876551 _2_ MAC  --- 0 RTS 44 [14ee 2 1 0] 
s 25.617886551 _2_ MAC  --- 0 CTS 38 [13b4 1 0 0] 
r 25.618190937 _1_ MAC  --- 0 CTS 38 [13b4 1 0 0] 
s 25.618200937 _1_ MAC  --- 23 cbr 590 [13a 2 1 800] ------- [1:0 2:0 30 2] [23] 0 0
r 25.622921322 _2_ MAC  --- 23 cbr 532 [13a 2 1 800] ------- [1:0 2:0 30 2] [23] 1 0
s 25.622931322 _2_ MAC  --- 0 ACK 38 [0 1 0 0] 
r 25.622946322 _2_ AGT  --- 23 cbr 532 [13a 2 1 800] ------- [1:0 2:0 30 2] [23] 1 0
r 25.623235708 _1_ MAC  --- 0 ACK 38 [0 1 0 0] 
s 26.663532183 _1_ AGT  --- 24 cbr 512 [0 0 0 0] ------- [1:0 2:0 32 0] [24] 0 0
r 26.663532183 _1_ RTR  --- 24 cbr 512 [0 0 0 0] ------- [1:0 2:0 32 0] [24] 0 0
s 26.663532183 _1_ RTR  --- 24 cbr 532 [0 0 0 0] ------- [1:0 2:0 30 2] [24] 0 0
s 26.663787183 _1_ MAC  --- 0 RTS 44 [14ee 2 1 0] 
r 26.664139569 _2_ MAC  --- 0 RTS 44 [14ee 2 1 0] 
s 26.664149569 _2_ MAC  --- 0 CTS 38 [13b4 1 0 0] 
r 26.664453954 _1_ MAC  --- 0 CTS 38 [13b4 1 0 0] 
s 26.664463954 _1_ MAC  --- 24 cbr 590 [13a 2 1 800] ------- [1:0 2:0 30 2] [24] 0 0
r 26.669184340 _2_ MAC  --- 24 cbr 532 [13a 2 1 800] ------- [1:0 2:0 30 2] [24] 1 0
s 26.669194340 _2_ MAC  --- 0 ACK 38 [0 1 0 0] 
r 26.669209340 _2_ AGT  --- 24 cbr 532 [13a 2 1 800] ------- [1:0 2:0 30 2] [24] 1 0
r 26.669498725 _1_ MAC  --- 0 ACK 38 [0 1 0 0] 
s 27.246962074 _1_ AGT  --- 25 cbr 512 [0 0 0 0] ------- [1:0 2:0 32 0] [25] 0 0
r 27.246962074 _1_ RTR  --- 25 cbr 512 [0 0 0 0] ------- [1:0 2:0 32 0] [25] 0 0
s 27.246962074 _1_ RTR  --- 25 cbr 532 [0 0 0 0] ------- [1:0 2:0 30 2] [25] 0 0
s 27.247437074 _1_ MAC  --- 0 RTS 44 [14ee 2 1 0] 
r 27.247789459 _2_ MAC  --- 0 RTS 44 [14ee 2 1 0] 
s 27.247799459 _2_ MAC  --- 0 CTS 38 [13b4 1 0 0] 
r 27.248103845 _1_ MAC  --- 0 CTS 38 [13b4 1 0 0] 
s 27.248113845 _1_ MAC  --- 25 cbr 590 [13a 2 1 800] ------- [1:0 2:0 30 2] [25] 0 0
r 27.252834230 _2_ MAC  --- 25 cbr 532 [13a 2 1 800] ------- [1:0 2:0 30 2] [25] 1 0
s 27.252844230 _2_ MAC  --- 0 ACK 38 [0 1 0 0] 
r 27.252859230 _2_ AGT  --- 25 cbr 532 [13a 2 1 800] ------- [1:0 2:0 30 2] [25] 1 0
r 27.253148616 _1_ MAC  --- 0 ACK 38 [0 1 0 0] 
s 28.658901275 _1_ AGT  --- 26 cbr 512 [0 0 0 0] ------- [1:0 2:0 32 0] [26] 0 0
r 28.658901275 _1_ RTR  --- 26 cbr 512 [0 0 0 0] ------- [1:0 2:0 32 0] [26] 0 0
s 28.658901275 _1_ RTR  --- 26 cbr 532 [0 0 0 0] ------- [1:0 2:0 30 2] [26] 0 0
s 28.659196275 _1_ MAC  --- 0 RTS 44 [14ee 2 1 0] 
r 28.659548661 _2_ MAC  --- 0 RTS 44 [14ee 2 1 0] 
s 28.659558661 _2_ MAC  --- 0 CTS 38 [13b4 1 0 0] 
r 28.659863046 _1_ MAC  --- 0 CTS 38 [13b4 1 0 0] 
s 28.659873046 _1_ MAC  --- 26 cbr 590 [13a 2 1 800] ------- [1:0 2:0 30 2] [26] 0 0
r 28.664593432 _2_ MAC  --- 26 cbr 532 [13a 2 1 800] ------- [1:0 2:0 30 2] [26] 1 0
s 28.664603432 _2_ MAC  --- 0 ACK 38 [0 1 0 0] 
r 28.664618432 _2_ AGT  --- 26 cbr 532 [13a 2 1 800] ------- [1:0 2:0 30 2] [26] 1 0
r 28.664907818 _1_ MAC  --- 0 ACK 38 [0 1 0 0] 
s 29.463890248 _1_ AGT  --- 27 cbr 512 [0 0 0 0] ------- [1:0 2:0 32 0] [27] 0 0
r 29.463890248 _1_ RTR  --- 27 cbr 512 [0 0 0 0] ------- [1:0 2:0 32 0] [27] 0 0
s 29.463890248 _1_ RTR  --- 27 cbr 532 [0 0 0 0] ------- [1:0 2:0 30 2] [27] 0 0
s 29.464325248 _1_ MAC  --- 0 RTS 44 [14ee 2 1 0] 
r 29.464677634 _2_ MAC  --- 0 RTS 44 [14ee 2 1 0] 
s 29.464687634 _2_ MAC  --- 0 CTS 38 [13b4 1 0 0] 
r 29.464992019 _1_ MAC  --- 0 CTS 38 [13b4 1 0 0] 
s 29.465002019 _1_ MAC  --- 27 cbr 590 [13a 2 1 800] ------- [1:0 2:0 30 2] [27] 0 0
r 29.469722405 _2_ MAC  --- 27 cbr 532 [13a 2 1 800] ------- [1:0 2:0 30 2] [27] 1 0
s 29.469732405 _2_ MAC  --- 0 ACK 38 [0 1 0 0] 
r 29.469747405 _2_ AGT  --- 27 cbr 532 [13a 2 1 800] ------- [1:0 2:0 30 2] [27] 1 0
r 29.470036790 _1_ MAC  --- 0 ACK 38 [0 1 0 0] 
s 30.845147726 _1_ AGT  --- 28 cbr 512 [0 0 0 0] ------- [1:0 2:0 32 0] [28] 0 0
r 30.845147726 _1_ RTR  --- 28 cbr 512 [0 0 0 0] ------- [1:0 2:0 32 0] [28] 0 0
s 30.845147726 _1_ RTR  --- 28 cbr 532 [0 0 0 0] ------- [1:0 2:0 30 2] [28] 0 0
s 30.845722726 _1_ MAC  --- 0 RTS 44 [14ee 2 1 0] 
r 30.846075112 _2_ MAC  --- 0 RTS 44 [14ee 2 1 0] 
s 30.846085112 _2_ MAC  --- 0 CTS 38 [13b4 1 0 0] 
r 30.846389497 _1_ MAC  --- 0 CTS 38 [13b4 1 0 0] 
s 30.846399497 _1_ MAC  --- 28 cbr 590 [13a 2 1 800] ------- [1:0 2:0 30 2] [28] 0 0
r 30.851119883 _2_ MAC  --- 28 cbr 532 [13a 2 1 800] ------- [1:0 2:0 30 2] [28] 1 0
s 30.851129883 _2_ MAC  --- 0 ACK 38 [0 1 0 0] 
r 30.851144883 _2_ AGT  --- 28 cbr 532 [13a 2 1 800] ------- [1:0 2:0 30 2] [28] 1 0
r 30.851434268 _1_ MAC  --- 0 ACK 38 [0 1 0 0] 
s 31.516366739 _1_ AGT  --- 29 cbr 512 [0 0 0 0] ------- [1:0 2:0 32 0] [29] 0 0
r 31.516366739 _1_ RTR  --- 29 cbr 512 [0 0 0 0] ------- [1:0 2:0 32 0] [29] 0 0
s 31.516366739 _1_ RTR  --- 29 cbr 532 [0 0 0 0] ------- [1:0 2:0 30 2] [29] 0 0
s 31.516461739 _1_ MAC  --- 0 RTS 44 [14ee 2 1 0] 
r 31.516814124 _2_ MAC  --- 0 RTS 44 [14ee 2 1 0] 
s 31.516824124 _2_ MAC  --- 0 CTS 38 [13b4 1 0 0] 
r 31.517128510 _1_ MAC  --- 0 CTS 38 [13b4 1 0 0] 
s 31.517138510 _1_ MAC  --- 29 cbr 590 [13a 2 1 800] ------- [1:0 2:0 30 2] [29] 0 0
r 31.521858895 _2_ MAC  --- 29 cbr 532 [13a 2 1 800] ------- [1:0 2:0 30 2] [29] 1 0
s 31.521868895 _2_ MAC  --- 0 ACK 38 [0 1 0 0] 
r 31.521883895 _2_ AGT  --- 29 cbr 532 [13a 2 1 800] ------- [1:0 2:0 30 2] [29] 1 0
r 31.522173281 _1_ MAC  --- 0 ACK 38 [0 1 0 0] 
s 32.631723363 _1_ AGT  --- 30 cbr 512 [0 0 0 0] ------- [1:0 2:0 32 0] [30] 0 0
r 32.631723363 _1_ RTR  --- 30 cbr 512 [0 0 0 0] ------- [1:0 2:0 32 0] [30] 0 0
s 32.631723363 _1_ RTR  --- 30 cbr 532 [0 0 0 0] ------- [1:0 2:0 30 2] [30] 0 0
s 32.631798363 _1_ MAC  --- 0 RTS 44 [14ee 2 1 0] 
r 32.632150748 _2_ MAC  --- 0 RTS 44 [14ee 2 1 0] 
s 32.632160748 _2_ MAC  --- 0 CTS 38 [13b4 1 0 0] 
r 32.632465134 _1_ MAC  --- 0 CTS 38 [13b4 1 0 0] 
s 32.632475134 _1_ MAC  --- 30 cbr 590 [13a 2 1 800] ------- [1:0 2:0 30 2] [30] 0 0