+ 0 0 1 tcp 40 ------- 0 0.0 1.0 0 0
- 0 0 1 tcp 40 ------- 0 0.0 1.0 0 0
r 0.010032 0 1 tcp 40 ------- 0 0.0 1.0 0 0
+ 0.010032 1 0 ack 40 ------- 0 1.0 0.0 0 1
- 0.010032 1 0 ack 40 ------- 0 1.0 0.0 0 1
r 0.020064 1 0 ack 40 ------- 0 1.0 0.0 0 1
+ 0.020064 0 1 tcp 1040 ------- 0 0.0 1.0 1 2
- 0.020064 0 1 tcp 1040 ------- 0 0.0 1.0 1 2
+ 0.020064 0 1 tcp 1040 ------- 0 0.0 1.0 2 3
- 0.020896 0 1 tcp 1040 ------- 0 0.0 1.0 2 3
r 0.030896 0 1 tcp 1040 ------- 0 0.0 1.0 1 2
+ 0.030896 1 0 ack 40 ------- 0 1.0 0.0 1 4
- 0.030896 1 0 ack 40 ------- 0 1.0 0.0 1 4
r 0.031728 0 1 tcp 1040 ------- 0 0.0 1.0 2 3
+ 0.031728 1 0 ack 40 ------- 0 1.0 0.0 2 5
- 0.031728 1 0 ack 40 ------- 0 1.0 0.0 2 5
r 0.040928 1 0 ack 40 ------- 0 1.0 0.0 1 4
+ 0.040928 0 1 tcp 1040 ------- 0 0.0 1.0 3 6
- 0.040928 0 1 tcp 1040 ------- 0 0.0 1.0 3 6
+ 0.040928 0 1 tcp 1040 ------- 0 0.0 1.0 4 7
r 0.04176 1 0 ack 40 ------- 0 1.0 0.0 2 5
+ 0.04176 0 1 tcp 1040 ------- 0 0.0 1.0 5 8
+ 0.04176 0 1 tcp 1040 ------- 0 0.0 1.0 6 9
- 0.04176 0 1 tcp 1040 ------- 0 0.0 1.0 4 7
- 0.042592 0 1 tcp 1040 ------- 0 0.0 1.0 5 8
- 0.043424 0 1 tcp 1040 ------- 0 0.0 1.0 6 9
r 0.05176 0 1 tcp 1040 ------- 0 0.0 1.0 3 6
+ 0.05176 1 0 ack 40 ------- 0 1.0 0.0 3 10
- 0.05176 1 0 ack 40 ------- 0 1.0 0.0 3 10
r 0.052592 0 1 tcp 1040 ------- 0 0.0 1.0 4 7
+ 0.052592 1 0 ack 40 ------- 0 1.0 0.0 4 11
- 0.052592 1 0 ack 40 ------- 0 1.0 0.0 4 11
r 0.053424 0 1 tcp 1040 ------- 0 0.0 1.0 5 8
+ 0.053424 1 0 ack 40 ------- 0 1.0 0.0 5 12
- 0.053424 1 0 ack 40 ------- 0 1.0 0.0 5 12
r 0.054256 0 1 tcp 1040 ------- 0 0.0 1.0 6 9
+ 0.054256 1 0 ack 40 ------- 0 1.0 0.0 6 13
- 0.054256 1 0 ack 40 ------- 0 1.0 0.0 6 13
r 0.061792 1 0 ack 40 ------- 0 1.0 0.0 3 10
+ 0.061792 0 1 tcp 1040 ------- 0 0.0 1.0 7 14
- 0.061792 0 1 tcp 1040 ------- 0 0.0 1.0 7 14
+ 0.061792 0 1 tcp 1040 ------- 0 0.0 1.0 8 15
r 0.062624 1 0 ack 40 ------- 0 1.0 0.0 4 11
+ 0.062624 0 1 tcp 1040 ------- 0 0.0 1.0 9 16
+ 0.062624 0 1 tcp 1040 ------- 0 0.0 1.0 10 17
- 0.062624 0 1 tcp 1040 ------- 0 0.0 1.0 8 15
r 0.063456 1 0 ack 40 ------- 0 1.0 0.0 5 12
+ 0.063456 0 1 tcp 1040 ------- 0 0.0 1.0 11 18
+ 0.063456 0 1 tcp 1040 ------- 0 0.0 1.0 12 19
- 0.063456 0 1 tcp 1040 ------- 0 0.0 1.0 9 16
r 0.064288 1 0 ack 40 ------- 0 1.0 0.0 6 13
+ 0.064288 0 1 tcp 1040 ------- 0 0.0 1.0 13 20
+ 0.064288 0 1 tcp 1040 ------- 0 0.0 1.0 14 21
- 0.064288 0 1 tcp 1040 ------- 0 0.0 1.0 10 17
- 0.06512 0 1 tcp 1040 ------- 0 0.0 1.0 11 18
- 0.065952 0 1 tcp 1040 ------- 0 0.0 1.0 12 19
- 0.066784 0 1 tcp 1040 ------- 0 0.0 1.0 13 20
- 0.067616 0 1 tcp 1040 ------- 0 0.0 1.0 14 21
r 0.072624 0 1 tcp 1040 ------- 0 0.0 1.0 7 14
+ 0.072624 1 0 ack 40 ------- 0 1.0 0.0 7 22
- 0.072624 1 0 ack 40 ------- 0 1.0 0.0 7 22
r 0.073456 0 1 tcp 1040 ------- 0 0.0 1.0 8 15
+ 0.073456 1 0 ack 40 ------- 0 1.0 0.0 8 23
- 0.073456 1 0 ack 40 ------- 0 1.0 0.0 8 23
r 0.074288 0 1 tcp 1040 ------- 0 0.0 1.0 9 16
+ 0.074288 1 0 ack 40 ------- 0 1.0 0.0 9 24
- 0.074288 1 0 ack 40 ------- 0 1.0 0.0 9 24
r 0.07512 0 1 tcp 1040 ------- 0 0.0 1.0 10 17
+ 0.07512 1 0 ack 40 ------- 0 1.0 0.0 10 25
- 0.07512 1 0 ack 40 ------- 0 1.0 0.0 10 25
r 0.075952 0 1 tcp 1040 ------- 0 0.0 1.0 11 18
+ 0.075952 1 0 ack 40 ------- 0 1.0 0.0 11 26
- 0.075952 1 0 ack 40 ------- 0 1.0 0.0 11 26
r 0.076784 0 1 tcp 1040 ------- 0 0.0 1.0 12 19
+ 0.076784 1 0 ack 40 ------- 0 1.0 0.0 12 27
- 0.076784 1 0 ack 40 ------- 0 1.0 0.0 12 27
r 0.077616 0 1 tcp 1040 ------- 0 0.0 1.0 13 20
+ 0.077616 1 0 ack 40 ------- 0 1.0 0.0 13 28
- 0.077616 1 0 ack 40 ------- 0 1.0 0.0 13 28
r 0.078448 0 1 tcp 1040 ------- 0 0.0 1.0 14 21
+ 0.078448 1 0 ack 40 ------- 0 1.0 0.0 14 29
- 0.078448 1 0 ack 40 ------- 0 1.0 0.0 14 29
r 0.082656 1 0 ack 40 ------- 0 1.0 0.0 7 22
+ 0.082656 0 1 tcp 1040 ------- 0 0.0 1.0 15 30
- 0.082656 0 1 tcp 1040 ------- 0 0.0 1.0 15 30
+ 0.082656 0 1 tcp 1040 ------- 0 0.0 1.0 16 31
r 0.083488 1 0 ack 40 ------- 0 1.0 0.0 8 23
+ 0.083488 0 1 tcp 1040 ------- 0 0.0 1.0 17 32
+ 0.083488 0 1 tcp 1040 ------- 0 0.0 1.0 18 33
- 0.083488 0 1 tcp 1040 ------- 0 0.0 1.0 16 31
r 0.08432 1 0 ack 40 ------- 0 1.0 0.0 9 24
+ 0.08432 0 1 tcp 1040 ------- 0 0.0 1.0 19 34
+ 0.08432 0 1 tcp 1040 ------- 0 0.0 1.0 20 35
- 0.08432 0 1 tcp 1040 ------- 0 0.0 1.0 17 32
r 0.085152 1 0 ack 40 ------- 0 1.0 0.0 10 25
+ 0.085152 0 1 tcp 1040 ------- 0 0.0 1.0 21 36
+ 0.085152 0 1 tcp 1040 ------- 0 0.0 1.0 22 37
- 0.085152 0 1 tcp 1040 ------- 0 0.0 1.0 18 33
r 0.085984 1 0 ack 40 ------- 0 1.0 0.0 11 26
+ 0.085984 0 1 tcp 1040 ------- 0 0.0 1.0 23 38
+ 0.085984 0 1 tcp 1040 ------- 0 0.0 1.0 24 39
- 0.085984 0 1 tcp 1040 ------- 0 0.0 1.0 19 34
r 0.086816 1 0 ack 40 ------- 0 1.0 0.0 12 27
+ 0.086816 0 1 tcp 1040 ------- 0 0.0 1.0 25 40
+ 0.086816 0 1 tcp 1040 ------- 0 0.0 1.0 26 41
- 0.086816 0 1 tcp 1040 ------- 0 0.0 1.0 20 35
r 0.087648 1 0 ack 40 ------- 0 1.0 0.0 13 28
+ 0.087648 0 1 tcp 1040 ------- 0 0.0 1.0 27 42
+ 0.087648 0 1 tcp 1040 ------- 0 0.0 1.0 28 43
- 0.087648 0 1 tcp 1040 ------- 0 0.0 1.0 21 36
r 0.08848 1 0 ack 40 ------- 0 1.0 0.0 14 29
+ 0.08848 0 1 tcp 1040 ------- 0 0.0 1.0 29 44
+ 0.08848 0 1 tcp 1040 ------- 0 0.0 1.0 30 45
- 0.08848 0 1 tcp 1040 ------- 0 0.0 1.0 22 37
- 0.089312 0 1 tcp 1040 ------- 0 0.0 1.0 23 38
- 0.090144 0 1 tcp 1040 ------- 0 0.0 1.0 24 39
- 0.090976 0 1 tcp 1040 ------- 0 0.0 1.0 25 40
- 0.091808 0 1 tcp 1040 ------- 0 0.0 1.0 26 41
- 0.09264 0 1 tcp 1040 ------- 0 0.0 1.0 27 42
- 0.093472 0 1 tcp 1040 ------- 0 0.0 1.0 28 43
r 0.093488 0 1 tcp 1040 ------- 0 0.0 1.0 15 30
+ 0.093488 1 0 ack 40 ------- 0 1.0 0.0 15 46
- 0.093488 1 0 ack 40 ------- 0 1.0 0.0 15 46
- 0.094304 0 1 tcp 1040 ------- 0 0.0 1.0 29 44
r 0.09432 0 1 tcp 1040 ------- 0 0.0 1.0 16 31
+ 0.09432 1 0 ack 40 ------- 0 1.0 0.0 16 47
- 0.09432 1 0 ack 40 ------- 0 1.0 0.0 16 47
- 0.095136 0 1 tcp 1040 ------- 0 0.0 1.0 30 45
r 0.095152 0 1 tcp 1040 ------- 0 0.0 1.0 17 32
+ 0.095152 1 0 ack 40 ------- 0 1.0 0.0 17 48
- 0.095152 1 0 ack 40 ------- 0 1.0 0.0 17 48
r 0.095984 0 1 tcp 1040 ------- 0 0.0 1.0 18 33
+ 0.095984 1 0 ack 40 ------- 0 1.0 0.0 18 49
- 0.095984 1 0 ack 40 ------- 0 1.0 0.0 18 49
r 0.096816 0 1 tcp 1040 ------- 0 0.0 1.0 19 34
+ 0.096816 1 0 ack 40 ------- 0 1.0 0.0 19 50
- 0.096816 1 0 ack 40 ------- 0 1.0 0.0 19 50
r 0.097648 0 1 tcp 1040 ------- 0 0.0 1.0 20 35
+ 0.097648 1 0 ack 40 ------- 0 1.0 0.0 20 51
- 0.097648 1 0 ack 40 ------- 0 1.0 0.0 20 51
r 0.09848 0 1 tcp 1040 ------- 0 0.0 1.0 21 36
+ 0.09848 1 0 ack 40 ------- 0 1.0 0.0 21 52
- 0.09848 1 0 ack 40 ------- 0 1.0 0.0 21 52
r 0.099312 0 1 tcp 1040 ------- 0 0.0 1.0 22 37
+ 0.099312 1 0 ack 40 ------- 0 1.0 0.0 22 53
- 0.099312 1 0 ack 40 ------- 0 1.0 0.0 22 53
r 0.100144 0 1 tcp 1040 ------- 0 0.0 1.0 23 38
+ 0.100144 1 0 ack 40 ------- 0 1.0 0.0 23 54
- 0.100144 1 0 ack 40 ------- 0 1.0 0.0 23 54
r 0.100976 0 1 tcp 1040 ------- 0 0.0 1.0 24 39
+ 0.100976 1 0 ack 40 ------- 0 1.0 0.0 24 55
- 0.100976 1 0 ack 40 ------- 0 1.0 0.0 24 55
r 0.101808 0 1 tcp 1040 ------- 0 0.0 1.0 25 40
+ 0.101808 1 0 ack 40 ------- 0 1.0 0.0 25 56
- 0.101808 1 0 ack 40 ------- 0 1.0 0.0 25 56
r 0.10264 0 1 tcp 1040 ------- 0 0.0 1.0 26 41
+ 0.10264 1 0 ack 40 ------- 0 1.0 0.0 26 57
- 0.10264 1 0 ack 40 ------- 0 1.0 0.0 26 57
r 0.103472 0 1 tcp 1040 ------- 0 0.0 1.0 27 42
+ 0.103472 1 0 ack 40 ------- 0 1.0 0.0 27 58
- 0.103472 1 0 ack 40 ------- 0 1.0 0.0 27 58
r 0.10352 1 0 ack 40 ------- 0 1.0 0.0 15 46
+ 0.10352 0 1 tcp 1040 ------- 0 0.0 1.0 31 59
- 0.10352 0 1 tcp 1040 ------- 0 0.0 1.0 31 59
+ 0.10352 0 1 tcp 1040 ------- 0 0.0 1.0 32 60
r 0.104304 0 1 tcp 1040 ------- 0 0.0 1.0 28 43
+ 0.104304 1 0 ack 40 ------- 0 1.0 0.0 28 61
- 0.104304 1 0 ack 40 ------- 0 1.0 0.0 28 61
r 0.104352 1 0 ack 40 ------- 0 1.0 0.0 16 47
+ 0.104352 0 1 tcp 1040 ------- 0 0.0 1.0 33 62
+ 0.104352 0 1 tcp 1040 ------- 0 0.0 1.0 34 63
- 0.104352 0 1 tcp 1040 ------- 0 0.0 1.0 32 60
r 0.105136 0 1 tcp 1040 ------- 0 0.0 1.0 29 44
+ 0.105136 1 0 ack 40 ------- 0 1.0 0.0 29 64
- 0.105136 1 0 ack 40 ------- 0 1.0 0.0 29 64
r 0.105184 1 0 ack 40 ------- 0 1.0 0.0 17 48
+ 0.105184 0 1 tcp 1040 ------- 0 0.0 1.0 35 65
+ 0.105184 0 1 tcp 1040 ------- 0 0.0 1.0 36 66
- 0.105184 0 1 tcp 1040 ------- 0 0.0 1.0 33 62
r 0.105968 0 1 tcp 1040 ------- 0 0.0 1.0 30 45
+ 0.105968 1 0 ack 40 ------- 0 1.0 0.0 30 67
- 0.105968 1 0 ack 40 ------- 0 1.0 0.0 30 67
r 0.106016 1 0 ack 40 ------- 0 1.0 0.0 18 49
+ 0.106016 0 1 tcp 1040 ------- 0 0.0 1.0 37 68
+ 0.106016 0 1 tcp 1040 ------- 0 0.0 1.0 38 69
- 0.106016 0 1 tcp 1040 ------- 0 0.0 1.0 34 63
r 0.106848 1 0 ack 40 ------- 0 1.0 0.0 19 50
+ 0.106848 0 1 tcp 1040 ------- 0 0.0 1.0 39 70
- 0.106848 0 1 tcp 1040 ------- 0 0.0 1.0 35 65
r 0.10768 1 0 ack 40 ------- 0 1.0 0.0 20 51
+ 0.10768 0 1 tcp 1040 ------- 0 0.0 1.0 40 71
- 0.10768 0 1 tcp 1040 ------- 0 0.0 1.0 36 66
r 0.108512 1 0 ack 40 ------- 0 1.0 0.0 21 52
+ 0.108512 0 1 tcp 1040 ------- 0 0.0 1.0 41 72
- 0.108512 0 1 tcp 1040 ------- 0 0.0 1.0 37 68
r 0.109344 1 0 ack 40 ------- 0 1.0 0.0 22 53
+ 0.109344 0 1 tcp 1040 ------- 0 0.0 1.0 42 73
- 0.109344 0 1 tcp 1040 ------- 0 0.0 1.0 38 69
r 0.110176 1 0 ack 40 ------- 0 1.0 0.0 23 54
+ 0.110176 0 1 tcp 1040 ------- 0 0.0 1.0 43 74
- 0.110176 0 1 tcp 1040 ------- 0 0.0 1.0 39 70
r 0.111008 1 0 ack 40 ------- 0 1.0 0.0 24 55
+ 0.111008 0 1 tcp 1040 ------- 0 0.0 1.0 44 75
- 0.111008 0 1 tcp 1040 ------- 0 0.0 1.0 40 71
r 0.11184 1 0 ack 40 ------- 0 1.0 0.0 25 56
+ 0.11184 0 1 tcp 1040 ------- 0 0.0 1.0 45 76
- 0.11184 0 1 tcp 1040 ------- 0 0.0 1.0 41 72
r 0.112672 1 0 ack 40 ------- 0 1.0 0.0 26 57
+ 0.112672 0 1 tcp 1040 ------- 0 0.0 1.0 46 77
- 0.112672 0 1 tcp 1040 ------- 0 0.0 1.0 42 73
r 0.113504 1 0 ack 40 ------- 0 1.0 0.0 27 58
+ 0.113504 0 1 tcp 1040 ------- 0 0.0 1.0 47 78
- 0.113504 0 1 tcp 1040 ------- 0 0.0 1.0 43 74
r 0.114336 1 0 ack 40 ------- 0 1.0 0.0 28 61
+ 0.114336 0 1 tcp 1040 ------- 0 0.0 1.0 48 79
- 0.114336 0 1 tcp 1040 ------- 0 0.0 1.0 44 75
r 0.114352 0 1 tcp 1040 ------- 0 0.0 1.0 31 59
+ 0.114352 1 0 ack 40 ------- 0 1.0 0.0 31 80
- 0.114352 1 0 ack 40 ------- 0 1.0 0.0 31 80
r 0.115168 1 0 ack 40 ------- 0 1.0 0.0 29 64
+ 0.115168 0 1 tcp 1040 ------- 0 0.0 1.0 49 81
- 0.115168 0 1 tcp 1040 ------- 0 0.0 1.0 45 76
r 0.115184 0 1 tcp 1040 ------- 0 0.0 1.0 32 60
+ 0.115184 1 0 ack 40 ------- 0 1.0 0.0 32 82
- 0.115184 1 0 ack 40 ------- 0 1.0 0.0 32 82
r 0.116 1 0 ack 40 ------- 0 1.0 0.0 30 67
+ 0.116 0 1 tcp 1040 ------- 0 0.0 1.0 50 83
- 0.116 0 1 tcp 1040 ------- 0 0.0 1.0 46 77
r 0.116016 0 1 tcp 1040 ------- 0 0.0 1.0 33 62
+ 0.116016 1 0 ack 40 ------- 0 1.0 0.0 33 84
- 0.116016 1 0 ack 40 ------- 0 1.0 0.0 33 84
- 0.116832 0 1 tcp 1040 ------- 0 0.0 1.0 47 78
r 0.116848 0 1 tcp 1040 ------- 0 0.0 1.0 34 63
+ 0.116848 1 0 ack 40 ------- 0 1.0 0.0 34 85
- 0.116848 1 0 ack 40 ------- 0 1.0 0.0 34 85
- 0.117664 0 1 tcp 1040 ------- 0 0.0 1.0 48 79
r 0.11768 0 1 tcp 1040 ------- 0 0.0 1.0 35 65
+ 0.11768 1 0 ack 40 ------- 0 1.0 0.0 35 86
- 0.11768 1 0 ack 40 ------- 0 1.0 0.0 35 86
- 0.118496 0 1 tcp 1040 ------- 0 0.0 1.0 49 81
r 0.118512 0 1 tcp 1040 ------- 0 0.0 1.0 36 66
+ 0.118512 1 0 ack 40 ------- 0 1.0 0.0 36 87
- 0.118512 1 0 ack 40 ------- 0 1.0 0.0 36 87
- 0.119328 0 1 tcp 1040 ------- 0 0.0 1.0 50 83
r 0.119344 0 1 tcp 1040 ------- 0 0.0 1.0 37 68
+ 0.119344 1 0 ack 40 ------- 0 1.0 0.0 37 88
- 0.119344 1 0 ack 40 ------- 0 1.0 0.0 37 88
r 0.120176 0 1 tcp 1040 ------- 0 0.0 1.0 38 69
+ 0.120176 1 0 ack 40 ------- 0 1.0 0.0 38 89
- 0.120176 1 0 ack 40 ------- 0 1.0 0.0 38 89
r 0.121008 0 1 tcp 1040 ------- 0 0.0 1.0 39 70
+ 0.121008 1 0 ack 40 ------- 0 1.0 0.0 39 90
- 0.121008 1 0 ack 40 ------- 0 1.0 0.0 39 90
r 0.12184 0 1 tcp 1040 ------- 0 0.0 1.0 40 71
+ 0.12184 1 0 ack 40 ------- 0 1.0 0.0 40 91
- 0.12184 1 0 ack 40 ------- 0 1.0 0.0 40 91
r 0.122672 0 1 tcp 1040 ------- 0 0.0 1.0 41 72
+ 0.122672 1 0 ack 40 ------- 0 1.0 0.0 41 92
- 0.122672 1 0 ack 40 ------- 0 1.0 0.0 41 92
r 0.123504 0 1 tcp 1040 ------- 0 0.0 1.0 42 73
+ 0.123504 1 0 ack 40 ------- 0 1.0 0.0 42 93
- 0.123504 1 0 ack 40 ------- 0 1.0 0.0 42 93
r 0.124336 0 1 tcp 1040 ------- 0 0.0 1.0 43 74
+ 0.124336 1 0 ack 40 ------- 0 1.0 0.0 43 94
- 0.124336 1 0 ack 40 ------- 0 1.0 0.0 43 94
r 0.124384 1 0 ack 40 ------- 0 1.0 0.0 31 80
+ 0.124384 0 1 tcp 1040 ------- 0 0.0 1.0 51 95
- 0.124384 0 1 tcp 1040 ------- 0 0.0 1.0 51 95
r 0.125168 0 1 tcp 1040 ------- 0 0.0 1.0 44 75
+ 0.125168 1 0 ack 40 ------- 0 1.0 0.0 44 96
- 0.125168 1 0 ack 40 ------- 0 1.0 0.0 44 96
r 0.125216 1 0 ack 40 ------- 0 1.0 0.0 32 82
+ 0.125216 0 1 tcp 1040 ------- 0 0.0 1.0 52 97
- 0.125216 0 1 tcp 1040 ------- 0 0.0 1.0 52 97
r 0.126 0 1 tcp 1040 ------- 0 0.0 1.0 45 76
+ 0.126 1 0 ack 40 ------- 0 1.0 0.0 45 98
- 0.126 1 0 ack 40 ------- 0 1.0 0.0 45 98
r 0.126048 1 0 ack 40 ------- 0 1.0 0.0 33 84
+ 0.126048 0 1 tcp 1040 ------- 0 0.0 1.0 53 99
- 0.126048 0 1 tcp 1040 ------- 0 0.0 1.0 53 99
r 0.126832 0 1 tcp 1040 ------- 0 0.0 1.0 46 77
+ 0.126832 1 0 ack 40 ------- 0 1.0 0.0 46 100
- 0.126832 1 0 ack 40 ------- 0 1.0 0.0 46 100
r 0.12688 1 0 ack 40 ------- 0 1.0 0.0 34 85
+ 0.12688 0 1 tcp 1040 ------- 0 0.0 1.0 54 101
- 0.12688 0 1 tcp 1040 ------- 0 0.0 1.0 54 101
r 0.127664 0 1 tcp 1040 ------- 0 0.0 1.0 47 78
+ 0.127664 1 0 ack 40 ------- 0 1.0 0.0 47 102
- 0.127664 1 0 ack 40 ------- 0 1.0 0.0 47 102
r 0.127712 1 0 ack 40 ------- 0 1.0 0.0 35 86
+ 0.127712 0 1 tcp 1040 ------- 0 0.0 1.0 55 103
- 0.127712 0 1 tcp 1040 ------- 0 0.0 1.0 55 103
r 0.128496 0 1 tcp 1040 ------- 0 0.0 1.0 48 79
+ 0.128496 1 0 ack 40 ------- 0 1.0 0.0 48 104
- 0.128496 1 0 ack 40 ------- 0 1.0 0.0 48 104
r 0.128544 1 0 ack 40 ------- 0 1.0 0.0 36 87
+ 0.128544 0 1 tcp 1040 ------- 0 0.0 1.0 56 105
- 0.128544 0 1 tcp 1040 ------- 0 0.0 1.0 56 105
r 0.129328 0 1 tcp 1040 ------- 0 0.0 1.0 49 81
+ 0.129328 1 0 ack 40 ------- 0 1.0 0.0 49 106
- 0.129328 1 0 ack 40 ------- 0 1.0 0.0 49 106
r 0.129376 1 0 ack 40 ------- 0 1.0 0.0 37 88
+ 0.129376 0 1 tcp 1040 ------- 0 0.0 1.0 57 107
- 0.129376 0 1 tcp 1040 ------- 0 0.0 1.0 57 107
r 0.13016 0 1 tcp 1040 ------- 0 0.0 1.0 50 83
+ 0.13016 1 0 ack 40 ------- 0 1.0 0.0 50 108
- 0.13016 1 0 ack 40 ------- 0 1.0 0.0 50 108
r 0.130208 1 0 ack 40 ------- 0 1.0 0.0 38 89
+ 0.130208 0 1 tcp 1040 ------- 0 0.0 1.0 58 109
- 0.130208 0 1 tcp 1040 ------- 0 0.0 1.0 58 109
r 0.13104 1 0 ack 40 ------- 0 1.0 0.0 39 90
+ 0.13104 0 1 tcp 1040 ------- 0 0.0 1.0 59 110
- 0.13104 0 1 tcp 1040 ------- 0 0.0 1.0 59 110
r 0.131872 1 0 ack 40 ------- 0 1.0 0.0 40 91
+ 0.131872 0 1 tcp 1040 ------- 0 0.0 1.0 60 111
- 0.131872 0 1 tcp 1040 ------- 0 0.0 1.0 60 111
r 0.132704 1 0 ack 40 ------- 0 1.0 0.0 41 92
+ 0.132704 0 1 tcp 1040 ------- 0 0.0 1.0 61 112
- 0.132704 0 1 tcp 1040 ------- 0 0.0 1.0 61 112
r 0.133536 1 0 ack 40 ------- 0 1.0 0.0 42 93
+ 0.133536 0 1 tcp 1040 ------- 0 0.0 1.0 62 113
- 0.133536 0 1 tcp 1040 ------- 0 0.0 1.0 62 113
r 0.134368 1 0 ack 40 ------- 0 1.0 0.0 43 94
+ 0.134368 0 1 tcp 1040 ------- 0 0.0 1.0 63 114
- 0.134368 0 1 tcp 1040 ------- 0 0.0 1.0 63 114
r 0.1352 1 0 ack 40 ------- 0 1.0 0.0 44 96
+ 0.1352 0 1 tcp 1040 ------- 0 0.0 1.0 64 115
- 0.1352 0 1 tcp 1040 ------- 0 0.0 1.0 64 115
r 0.135216 0 1 tcp 1040 ------- 0 0.0 1.0 51 95
+ 0.135216 1 0 ack 40 ------- 0 1.0 0.0 51 116
- 0.135216 1 0 ack 40 ------- 0 1.0 0.0 51 116
r 0.136032 1 0 ack 40 ------- 0 1.0 0.0 45 98
+ 0.136032 0 1 tcp 1040 ------- 0 0.0 1.0 65 117
- 0.136032 0 1 tcp 1040 ------- 0 0.0 1.0 65 117
r 0.136048 0 1 tcp 1040 ------- 0 0.0 1.0 52 97
+ 0.136048 1 0 ack 40 ------- 0 1.0 0.0 52 118
- 0.136048 1 0 ack 40 ------- 0 1.0 0.0 52 118
r 0.136864 1 0 ack 40 ------- 0 1.0 0.0 46 100
+ 0.136864 0 1 tcp 1040 ------- 0 0.0 1.0 66 119
- 0.136864 0 1 tcp 1040 ------- 0 0.0 1.0 66 119
r 0.13688 0 1 tcp 1040 ------- 0 0.0 1.0 53 99
+ 0.13688 1 0 ack 40 ------- 0 1.0 0.0 53 120
- 0.13688 1 0 ack 40 ------- 0 1.0 0.0 53 120
r 0.137696 1 0 ack 40 ------- 0 1.0 0.0 47 102
+ 0.137696 0 1 tcp 1040 ------- 0 0.0 1.0 67 121
- 0.137696 0 1 tcp 1040 ------- 0 0.0 1.0 67 121
r 0.137712 0 1 tcp 1040 ------- 0 0.0 1.0 54 101
+ 0.137712 1 0 ack 40 ------- 0 1.0 0.0 54 122
- 0.137712 1 0 ack 40 ------- 0 1.0 0.0 54 122
r 0.138528 1 0 ack 40 ------- 0 1.0 0.0 48 104
+ 0.138528 0 1 tcp 1040 ------- 0 0.0 1.0 68 123
- 0.138528 0 1 tcp 1040 ------- 0 0.0 1.0 68 123
r 0.138544 0 1 tcp 1040 ------- 0 0.0 1.0 55 103
+ 0.138544 1 0 ack 40 ------- 0 1.0 0.0 55 124
- 0.138544 1 0 ack 40 ------- 0 1.0 0.0 55 124
r 0.13936 1 0 ack 40 ------- 0 1.0 0.0 49 106
+ 0.13936 0 1 tcp 1040 ------- 0 0.0 1.0 69 125
- 0.13936 0 1 tcp 1040 ------- 0 0.0 1.0 69 125
r 0.139376 0 1 tcp 1040 ------- 0 0.0 1.0 56 105
+ 0.139376 1 0 ack 40 ------- 0 1.0 0.0 56 126
- 0.139376 1 0 ack 40 ------- 0 1.0 0.0 56 126
r 0.140192 1 0 ack 40 ------- 0 1.0 0.0 50 108
+ 0.140192 0 1 tcp 1040 ------- 0 0.0 1.0 70 127
- 0.140192 0 1 tcp 1040 ------- 0 0.0 1.0 70 127
r 0.140208 0 1 tcp 1040 ------- 0 0.0 1.0 57 107
+ 0.140208 1 0 ack 40 ------- 0 1.0 0.0 57 128
- 0.140208 1 0 ack 40 ------- 0 1.0 0.0 57 128
r 0.14104 0 1 tcp 1040 ------- 0 0.0 1.0 58 109
+ 0.14104 1 0 ack 40 ------- 0 1.0 0.0 58 129
- 0.14104 1 0 ack 40 ------- 0 1.0 0.0 58 129
r 0.141872 0 1 tcp 1040 ------- 0 0.0 1.0 59 110
+ 0.141872 1 0 ack 40 ------- 0 1.0 0.0 59 130
- 0.141872 1 0 ack 40 ------- 0 1.0 0.0 59 130
r 0.142704 0 1 tcp 1040 ------- 0 0.0 1.0 60 111
+ 0.142704 1 0 ack 40 ------- 0 1.0 0.0 60 131
- 0.142704 1 0 ack 40 ------- 0 1.0 0.0 60 131
r 0.143536 0 1 tcp 1040 ------- 0 0.0 1.0 61 112
+ 0.143536 1 0 ack 40 ------- 0 1.0 0.0 61 132
- 0.143536 1 0 ack 40 ------- 0 1.0 0.0 61 132
r 0.144368 0 1 tcp 1040 ------- 0 0.0 1.0 62 113
+ 0.144368 1 0 ack 40 ------- 0 1.0 0.0 62 133
- 0.144368 1 0 ack 40 ------- 0 1.0 0.0 62 133
r 0.1452 0 1 tcp 1040 ------- 0 0.0 1.0 63 114
+ 0.1452 1 0 ack 40 ------- 0 1.0 0.0 63 134
- 0.1452 1 0 ack 40 ------- 0 1.0 0.0 63 134
r 0.145248 1 0 ack 40 ------- 0 1.0 0.0 51 116
+ 0.145248 0 1 tcp 1040 ------- 0 0.0 1.0 71 135
- 0.145248 0 1 tcp 1040 ------- 0 0.0 1.0 71 135
r 0.146032 0 1 tcp 1040 ------- 0 0.0 1.0 64 115
+ 0.146032 1 0 ack 40 ------- 0 1.0 0.0 64 136
- 0.146032 1 0 ack 40 ------- 0 1.0 0.0 64 136
r 0.14608 1 0 ack 40 ------- 0 1.0 0.0 52 118
+ 0.14608 0 1 tcp 1040 ------- 0 0.0 1.0 72 137
- 0.14608 0 1 tcp 1040 ------- 0 0.0 1.0 72 137
r 0.146864 0 1 tcp 1040 ------- 0 0.0 1.0 65 117
+ 0.146864 1 0 ack 40 ------- 0 1.0 0.0 65 138
- 0.146864 1 0 ack 40 ------- 0 1.0 0.0 65 138
r 0.146912 1 0 ack 40 ------- 0 1.0 0.0 53 120
+ 0.146912 0 1 tcp 1040 ------- 0 0.0 1.0 73 139
- 0.146912 0 1 tcp 1040 ------- 0 0.0 1.0 73 139
r 0.147696 0 1 tcp 1040 ------- 0 0.0 1.0 66 119
+ 0.147696 1 0 ack 40 ------- 0 1.0 0.0 66 140
- 0.147696 1 0 ack 40 ------- 0 1.0 0.0 66 140
r 0.147744 1 0 ack 40 ------- 0 1.0 0.0 54 122
+ 0.147744 0 1 tcp 1040 ------- 0 0.0 1.0 74 141
- 0.147744 0 1 tcp 1040 ------- 0 0.0 1.0 74 141
r 0.148528 0 1 tcp 1040 ------- 0 0.0 1.0 67 121
+ 0.148528 1 0 ack 40 ------- 0 1.0 0.0 67 142
- 0.148528 1 0 ack 40 ------- 0 1.0 0.0 67 142
r 0.148576 1 0 ack 40 ------- 0 1.0 0.0 55 124
+ 0.148576 0 1 tcp 1040 ------- 0 0.0 1.0 75 143
- 0.148576 0 1 tcp 1040 ------- 0 0.0 1.0 75 143
r 0.14936 0 1 tcp 1040 ------- 0 0.0 1.0 68 123
+ 0.14936 1 0 ack 40 ------- 0 1.0 0.0 68 144
- 0.14936 1 0 ack 40 ------- 0 1.0 0.0 68 144
r 0.149408 1 0 ack 40 ------- 0 1.0 0.0 56 126
+ 0.149408 0 1 tcp 1040 ------- 0 0.0 1.0 76 145
- 0.149408 0 1 tcp 1040 ------- 0 0.0 1.0 76 145
r 0.150192 0 1 tcp 1040 ------- 0 0.0 1.0 69 125
+ 0.150192 1 0 ack 40 ------- 0 1.0 0.0 69 146
- 0.150192 1 0 ack 40 ------- 0 1.0 0.0 69 146
r 0.15024 1 0 ack 40 ------- 0 1.0 0.0 57 128
+ 0.15024 0 1 tcp 1040 ------- 0 0.0 1.0 77 147
- 0.15024 0 1 tcp 1040 ------- 0 0.0 1.0 77 147
r 0.151024 0 1 tcp 1040 ------- 0 0.0 1.0 70 127
+ 0.151024 1 0 ack 40 ------- 0 1.0 0.0 70 148
- 0.151024 1 0 ack 40 ------- 0 1.0 0.0 70 148
r 0.151072 1 0 ack 40 ------- 0 1.0 0.0 58 129
+ 0.151072 0 1 tcp 1040 ------- 0 0.0 1.0 78 149
- 0.151072 0 1 tcp 1040 ------- 0 0.0 1.0 78 149
r 0.151904 1 0 ack 40 ------- 0 1.0 0.0 59 130
+ 0.151904 0 1 tcp 1040 ------- 0 0.0 1.0 79 150
- 0.151904 0 1 tcp 1040 ------- 0 0.0 1.0 79 150
r 0.152736 1 0 ack 40 ------- 0 1.0 0.0 60 131
+ 0.152736 0 1 tcp 1040 ------- 0 0.0 1.0 80 151
- 0.152736 0 1 tcp 1040 ------- 0 0.0 1.0 80 151
r 0.153568 1 0 ack 40 ------- 0 1.0 0.0 61 132
+ 0.153568 0 1 tcp 1040 ------- 0 0.0 1.0 81 152
- 0.153568 0 1 tcp 1040 ------- 0 0.0 1.0 81 152
r 0.1544 1 0 ack 40 ------- 0 1.0 0.0 62 133
+ 0.1544 0 1 tcp 1040 ------- 0 0.0 1.0 82 153
- 0.1544 0 1 tcp 1040 ------- 0 0.0 1.0 82 153
r 0.155232 1 0 ack 40 ------- 0 1.0 0.0 63 134
+ 0.155232 0 1 tcp 1040 ------- 0 0.0 1.0 83 154
- 0.155232 0 1 tcp 1040 ------- 0 0.0 1.0 83 154
r 0.156064 1 0 ack 40 ------- 0 1.0 0.0 64 136
+ 0.156064 0 1 tcp 1040 ------- 0 0.0 1.0 84 155
- 0.156064 0 1 tcp 1040 ------- 0 0.0 1.0 84 155
r 0.15608 0 1 tcp 1040 ------- 0 0.0 1.0 71 135
+ 0.15608 1 0 ack 40 ------- 0 1.0 0.0 71 156
- 0.15608 1 0 ack 40 ------- 0 1.0 0.0 71 156
r 0.156896 1 0 ack 40 ------- 0 1.0 0.0 65 138
+ 0.156896 0 1 tcp 1040 ------- 0 0.0 1.0 85 157
- 0.156896 0 1 tcp 1040 ------- 0 0.0 1.0 85 157
r 0.156912 0 1 tcp 1040 ------- 0 0.0 1.0 72 137
+ 0.156912 1 0 ack 40 ------- 0 1.0 0.0 72 158
- 0.156912 1 0 ack 40 ------- 0 1.0 0.0 72 158
r 0.157728 1 0 ack 40 ------- 0 1.0 0.0 66 140
+ 0.157728 0 1 tcp 1040 ------- 0 0.0 1.0 86 159
- 0.157728 0 1 tcp 1040 ------- 0 0.0 1.0 86 159
r 0.157744 0 1 tcp 1040 ------- 0 0.0 1.0 73 139
+ 0.157744 1 0 ack 40 ------- 0 1.0 0.0 73 160
- 0.157744 1 0 ack 40 ------- 0 1.0 0.0 73 160
r 0.15856 1 0 ack 40 ------- 0 1.0 0.0 67 142
+ 0.15856 0 1 tcp 1040 ------- 0 0.0 1.0 87 161
- 0.15856 0 1 tcp 1040 ------- 0 0.0 1.0 87 161
r 0.158576 0 1 tcp 1040 ------- 0 0.0 1.0 74 141
+ 0.158576 1 0 ack 40 ------- 0 1.0 0.0 74 162
- 0.158576 1 0 ack 40 ------- 0 1.0 0.0 74 162
r 0.159392 1 0 ack 40 ------- 0 1.0 0.0 68 144
+ 0.159392 0 1 tcp 1040 ------- 0 0.0 1.0 88 163
- 0.159392 0 1 tcp 1040 ------- 0 0.0 1.0 88 163
r 0.159408 0 1 tcp 1040 ------- 0 0.0 1.0 75 143
+ 0.159408 1 0 ack 40 ------- 0 1.0 0.0 75 164
- 0.159408 1 0 ack 40 ------- 0 1.0 0.0 75 164
r 0.160224 1 0 ack 40 ------- 0 1.0 0.0 69 146
+ 0.160224 0 1 tcp 1040 ------- 0 0.0 1.0 89 165
- 0.160224 0 1 tcp 1040 ------- 0 0.0 1.0 89 165
r 0.16024 0 1 tcp 1040 ------- 0 0.0 1.0 76 145
+ 0.16024 1 0 ack 40 ------- 0 1.0 0.0 76 166
- 0.16024 1 0 ack 40 ------- 0 1.0 0.0 76 166
r 0.161056 1 0 ack 40 ------- 0 1.0 0.0 70 148
+ 0.161056 0 1 tcp 1040 ------- 0 0.0 1.0 90 167
- 0.161056 0 1 tcp 1040 ------- 0 0.0 1.0 90 167
r 0.161072 0 1 tcp 1040 ------- 0 0.0 1.0 77 147
+ 0.161072 1 0 ack 40 ------- 0 1.0 0.0 77 168
- 0.161072 1 0 ack 40 ------- 0 1.0 0.0 77 168
r 0.161904 0 1 tcp 1040 ------- 0 0.0 1.0 78 149
+ 0.161904 1 0 ack 40 ------- 0 1.0 0.0 78 169
- 0.161904 1 0 ack 40 ------- 0 1.0 0.0 78 169
r 0.162736 0 1 tcp 1040 ------- 0 0.0 1.0 79 150
+ 0.162736 1 0 ack 40 ------- 0 1.0 0.0 79 170
- 0.162736 1 0 ack 40 ------- 0 1.0 0.0 79 170
r 0.163568 0 1 tcp 1040 ------- 0 0.0 1.0 80 151
+ 0.163568 1 0 ack 40 ------- 0 1.0 0.0 80 171
- 0.163568 1 0 ack 40 ------- 0 1.0 0.0 80 171
r 0.1644 0 1 tcp 1040 ------- 0 0.0 1.0 81 152
+ 0.1644 1 0 ack 40 ------- 0 1.0 0.0 81 172
- 0.1644 1 0 ack 40 ------- 0 1.0 0.0 81 172
r 0.165232 0 1 tcp 1040 ------- 0 0.0 1.0 82 153
+ 0.165232 1 0 ack 40 ------- 0 1.0 0.0 82 173
- 0.165232 1 0 ack 40 ------- 0 1.0 0.0 82 173
r 0.166064 0 1 tcp 1040 ------- 0 0.0 1.0 83 154
+ 0.166064 1 0 ack 40 ------- 0 1.0 0.0 83 174
- 0.166064 1 0 ack 40 ------- 0 1.0 0.0 83 174
r 0.166112 1 0 ack 40 ------- 0 1.0 0.0 71 156
+ 0.166112 0 1 tcp 1040 ------- 0 0.0 1.0 91 175
- 0.166112 0 1 tcp 1040 ------- 0 0.0 1.0 91 175
r 0.166896 0 1 tcp 1040 ------- 0 0.0 1.0 84 155
+ 0.166896 1 0 ack 40 ------- 0 1.0 0.0 84 176
- 0.166896 1 0 ack 40 ------- 0 1.0 0.0 84 176
r 0.166944 1 0 ack 40 ------- 0 1.0 0.0 72 158
+ 0.166944 0 1 tcp 1040 ------- 0 0.0 1.0 92 177
- 0.166944 0 1 tcp 1040 ------- 0 0.0 1.0 92 177
r 0.167728 0 1 tcp 1040 ------- 0 0.0 1.0 85 157
+ 0.167728 1 0 ack 40 ------- 0 1.0 0.0 85 178
- 0.167728 1 0 ack 40 ------- 0 1.0 0.0 85 178
r 0.167776 1 0 ack 40 ------- 0 1.0 0.0 73 160
+ 0.167776 0 1 tcp 1040 ------- 0 0.0 1.0 93 179
- 0.167776 0 1 tcp 1040 ------- 0 0.0 1.0 93 179
r 0.16856 0 1 tcp 1040 ------- 0 0.0 1.0 86 159
+ 0.16856 1 0 ack 40 ------- 0 1.0 0.0 86 180
- 0.16856 1 0 ack 40 ------- 0 1.0 0.0 86 180
r 0.168608 1 0 ack 40 ------- 0 1.0 0.0 74 162
+ 0.168608 0 1 tcp 1040 ------- 0 0.0 1.0 94 181
- 0.168608 0 1 tcp 1040 ------- 0 0.0 1.0 94 181
r 0.169392 0 1 tcp 1040 ------- 0 0.0 1.0 87 161
+ 0.169392 1 0 ack 40 ------- 0 1.0 0.0 87 182
- 0.169392 1 0 ack 40 ------- 0 1.0 0.0 87 182
r 0.16944 1 0 ack 40 ------- 0 1.0 0.0 75 164
+ 0.16944 0 1 tcp 1040 ------- 0 0.0 1.0 95 183
- 0.16944 0 1 tcp 1040 ------- 0 0.0 1.0 95 183
r 0.170224 0 1 tcp 1040 ------- 0 0.0 1.0 88 163
+ 0.170224 1 0 ack 40 ------- 0 1.0 0.0 88 184
- 0.170224 1 0 ack 40 ------- 0 1.0 0.0 88 184
r 0.170272 1 0 ack 40 ------- 0 1.0 0.0 76 166
+ 0.170272 0 1 tcp 1040 ------- 0 0.0 1.0 96 185
- 0.170272 0 1 tcp 1040 ------- 0 0.0 1.0 96 185
r 0.171056 0 1 tcp 1040 ------- 0 0.0 1.0 89 165
+ 0.171056 1 0 ack 40 ------- 0 1.0 0.0 89 186
- 0.171056 1 0 ack 40 ------- 0 1.0 0.0 89 186
r 0.171104 1 0 ack 40 ------- 0 1.0 0.0 77 168
+ 0.171104 0 1 tcp 1040 ------- 0 0.0 1.0 97 187
- 0.171104 0 1 tcp 1040 ------- 0 0.0 1.0 97 187
r 0.171888 0 1 tcp 1040 ------- 0 0.0 1.0 90 167
+ 0.171888 1 0 ack 40 ------- 0 1.0 0.0 90 188
- 0.171888 1 0 ack 40 ------- 0 1.0 0.0 90 188
r 0.171936 1 0 ack 40 ------- 0 1.0 0.0 78 169
+ 0.171936 0 1 tcp 1040 ------- 0 0.0 1.0 98 189
- 0.171936 0 1 tcp 1040 ------- 0 0.0 1.0 98 189
r 0.172768 1 0 ack 40 ------- 0 1.0 0.0 79 170
+ 0.172768 0 1 tcp 1040 ------- 0 0.0 1.0 99 190
- 0.172768 0 1 tcp 1040 ------- 0 0.0 1.0 99 190
r 0.1736 1 0 ack 40 ------- 0 1.0 0.0 80 171
+ 0.1736 0 1 tcp 1040 ------- 0 0.0 1.0 100 191
- 0.1736 0 1 tcp 1040 ------- 0 0.0 1.0 100 191
r 0.174432 1 0 ack 40 ------- 0 1.0 0.0 81 172
+ 0.174432 0 1 tcp 1040 ------- 0 0.0 1.0 101 192
- 0.174432 0 1 tcp 1040 ------- 0 0.0 1.0 101 192
r 0.175264 1 0 ack 40 ------- 0 1.0 0.0 82 173
+ 0.175264 0 1 tcp 1040 ------- 0 0.0 1.0 102 193
- 0.175264 0 1 tcp 1040 ------- 0 0.0 1.0 102 193
r 0.176096 1 0 ack 40 ------- 0 1.0 0.0 83 174
+ 0.176096 0 1 tcp 1040 ------- 0 0.0 1.0 103 194
- 0.176096 0 1 tcp 1040 ------- 0 0.0 1.0 103 194
r 0.176928 1 0 ack 40 ------- 0 1.0 0.0 84 176
+ 0.176928 0 1 tcp 1040 ------- 0 0.0 1.0 104 195
- 0.176928 0 1 tcp 1040 ------- 0 0.0 1.0 104 195
r 0.176944 0 1 tcp 1040 ------- 0 0.0 1.0 91 175
+ 0.176944 1 0 ack 40 ------- 0 1.0 0.0 91 196
- 0.176944 1 0 ack 40 ------- 0 1.0 0.0 91 196
r 0.17776 1 0 ack 40 ------- 0 1.0 0.0 85 178
+ 0.17776 0 1 tcp 1040 ------- 0 0.0 1.0 105 197
- 0.17776 0 1 tcp 1040 ------- 0 0.0 1.0 105 197
r 0.177776 0 1 tcp 1040 ------- 0 0.0 1.0 92 177
+ 0.177776 1 0 ack 40 ------- 0 1.0 0.0 92 198
- 0.177776 1 0 ack 40 ------- 0 1.0 0.0 92 198
r 0.178592 1 0 ack 40 ------- 0 1.0 0.0 86 180
+ 0.178592 0 1 tcp 1040 ------- 0 0.0 1.0 106 199
- 0.178592 0 1 tcp 1040 ------- 0 0.0 1.0 106 199
r 0.178608 0 1 tcp 1040 ------- 0 0.0 1.0 93 179
+ 0.178608 1 0 ack 40 ------- 0 1.0 0.0 93 200
- 0.178608 1 0 ack 40 ------- 0 1.0 0.0 93 200
r 0.179424 1 0 ack 40 ------- 0 1.0 0.0 87 182
+ 0.179424 0 1 tcp 1040 ------- 0 0.0 1.0 107 201
- 0.179424 0 1 tcp 1040 ------- 0 0.0 1.0 107 201
r 0.17944 0 1 tcp 1040 ------- 0 0.0 1.0 94 181
+ 0.17944 1 0 ack 40 ------- 0 1.0 0.0 94 202
- 0.17944 1 0 ack 40 ------- 0 1.0 0.0 94 202
r 0.180256 1 0 ack 40 ------- 0 1.0 0.0 88 184
+ 0.180256 0 1 tcp 1040 ------- 0 0.0 1.0 108 203
- 0.180256 0 1 tcp 1040 ------- 0 0.0 1.0 108 203
r 0.180272 0 1 tcp 1040 ------- 0 0.0 1.0 95 183
+ 0.180272 1 0 ack 40 ------- 0 1.0 0.0 95 204
- 0.180272 1 0 ack 40 ------- 0 1.0 0.0 95 204
r 0.181088 1 0 ack 40 ------- 0 1.0 0.0 89 186
+ 0.181088 0 1 tcp 1040 ------- 0 0.0 1.0 109 205
- 0.181088 0 1 tcp 1040 ------- 0 0.0 1.0 109 205
r 0.181104 0 1 tcp 1040 ------- 0 0.0 1.0 96 185
+ 0.181104 1 0 ack 40 ------- 0 1.0 0.0 96 206
- 0.181104 1 0 ack 40 ------- 0 1.0 0.0 96 206
r 0.18192 1 0 ack 40 ------- 0 1.0 0.0 90 188
+ 0.18192 0 1 tcp 1040 ------- 0 0.0 1.0 110 207
- 0.18192 0 1 tcp 1040 ------- 0 0.0 1.0 110 207
r 0.181936 0 1 tcp 1040 ------- 0 0.0 1.0 97 187
+ 0.181936 1 0 ack 40 ------- 0 1.0 0.0 97 208
- 0.181936 1 0 ack 40 ------- 0 1.0 0.0 97 208
r 0.182768 0 1 tcp 1040 ------- 0 0.0 1.0 98 189
+ 0.182768 1 0 ack 40 ------- 0 1.0 0.0 98 209
- 0.182768 1 0 ack 40 ------- 0 1.0 0.0 98 209
r 0.1836 0 1 tcp 1040 ------- 0 0.0 1.0 99 190
+ 0.1836 1 0 ack 40 ------- 0 1.0 0.0 99 210
- 0.1836 1 0 ack 40 ------- 0 1.0 0.0 99 210
r 0.184432 0 1 tcp 1040 ------- 0 0.0 1.0 100 191
+ 0.184432 1 0 ack 40 ------- 0 1.0 0.0 100 211
- 0.184432 1 0 ack 40 ------- 0 1.0 0.0 100 211
r 0.185264 0 1 tcp 1040 ------- 0 0.0 1.0 101 192
+ 0.185264 1 0 ack 40 ------- 0 1.0 0.0 101 212
- 0.185264 1 0 ack 40 ------- 0 1.0 0.0 101 212
r 0.186096 0 1 tcp 1040 ------- 0 0.0 1.0 102 193
+ 0.186096 1 0 ack 40 ------- 0 1.0 0.0 102 213
- 0.186096 1 0 ack 40 ------- 0 1.0 0.0 102 213
r 0.186928 0 1 tcp 1040 ------- 0 0.0 1.0 103 194
+ 0.186928 1 0 ack 40 ------- 0 1.0 0.0 103 214
- 0.186928 1 0 ack 40 ------- 0 1.0 0.0 103 214
r 0.186976 1 0 ack 40 ------- 0 1.0 0.0 91 196
+ 0.186976 0 1 tcp 1040 ------- 0 0.0 1.0 111 215
- 0.186976 0 1 tcp 1040 ------- 0 0.0 1.0 111 215
r 0.18776 0 1 tcp 1040 ------- 0 0.0 1.0 104 195
+ 0.18776 1 0 ack 40 ------- 0 1.0 0.0 104 216
- 0.18776 1 0 ack 40 ------- 0 1.0 0.0 104 216
r 0.187808 1 0 ack 40 ------- 0 1.0 0.0 92 198
+ 0.187808 0 1 tcp 1040 ------- 0 0.0 1.0 112 217
- 0.187808 0 1 tcp 1040 ------- 0 0.0 1.0 112 217
r 0.188592 0 1 tcp 1040 ------- 0 0.0 1.0 105 197