+ 0 0 2 tcp 40 ------- 0 0.0 3.0 0 0
- 0 0 2 tcp 40 ------- 0 0.0 3.0 0 0
r 0.005001 0 2 tcp 40 ------- 0 0.0 3.0 0 0
+ 0.005001 2 3 tcp 40 ------- 0 0.0 3.0 0 0
- 0.005001 2 3 tcp 40 ------- 0 0.0 3.0 0 0
r 0.010003 2 3 tcp 40 ------- 0 0.0 3.0 0 0
+ 0.010003 3 2 ack 40 ------- 0 3.0 0.0 0 1
- 0.010003 3 2 ack 40 ------- 0 3.0 0.0 0 1
r 0.015006 3 2 ack 40 ------- 0 3.0 0.0 0 1
+ 0.015006 2 0 ack 40 ------- 0 3.0 0.0 0 1
- 0.015006 2 0 ack 40 ------- 0 3.0 0.0 0 1
r 0.020007 2 0 ack 40 ------- 0 3.0 0.0 0 1
+ 0.020007 0 2 tcp 1040 ------- 0 0.0 3.0 1 2
- 0.020007 0 2 tcp 1040 ------- 0 0.0 3.0 1 2
+ 0.020007 0 2 tcp 1040 ------- 0 0.0 3.0 2 3
- 0.02003 0 2 tcp 1040 ------- 0 0.0 3.0 2 3
r 0.02503 0 2 tcp 1040 ------- 0 0.0 3.0 1 2
+ 0.02503 2 3 tcp 1040 ------- 0 0.0 3.0 1 2
- 0.02503 2 3 tcp 1040 ------- 0 0.0 3.0 1 2
r 0.025053 0 2 tcp 1040 ------- 0 0.0 3.0 2 3
+ 0.025053 2 3 tcp 1040 ------- 0 0.0 3.0 2 3
- 0.025096 2 3 tcp 1040 ------- 0 0.0 3.0 2 3
r 0.030096 2 3 tcp 1040 ------- 0 0.0 3.0 1 2
+ 0.030096 3 2 ack 40 ------- 0 3.0 0.0 1 4
- 0.030096 3 2 ack 40 ------- 0 3.0 0.0 1 4
r 0.030163 2 3 tcp 1040 ------- 0 0.0 3.0 2 3
+ 0.030163 3 2 ack 40 ------- 0 3.0 0.0 2 5
- 0.030163 3 2 ack 40 ------- 0 3.0 0.0 2 5
r 0.035099 3 2 ack 40 ------- 0 3.0 0.0 1 4
+ 0.035099 2 0 ack 40 ------- 0 3.0 0.0 1 4
- 0.035099 2 0 ack 40 ------- 0 3.0 0.0 1 4
r 0.035166 3 2 ack 40 ------- 0 3.0 0.0 2 5
+ 0.035166 2 0 ack 40 ------- 0 3.0 0.0 2 5
- 0.035166 2 0 ack 40 ------- 0 3.0 0.0 2 5
r 0.0401 2 0 ack 40 ------- 0 3.0 0.0 1 4
+ 0.0401 0 2 tcp 1040 ------- 0 0.0 3.0 3 6
- 0.0401 0 2 tcp 1040 ------- 0 0.0 3.0 3 6
+ 0.0401 0 2 tcp 1040 ------- 0 0.0 3.0 4 7
- 0.040123 0 2 tcp 1040 ------- 0 0.0 3.0 4 7
r 0.040167 2 0 ack 40 ------- 0 3.0 0.0 2 5
+ 0.040167 0 2 tcp 1040 ------- 0 0.0 3.0 5 8
- 0.040167 0 2 tcp 1040 ------- 0 0.0 3.0 5 8
+ 0.040167 0 2 tcp 1040 ------- 0 0.0 3.0 6 9
- 0.040189 0 2 tcp 1040 ------- 0 0.0 3.0 6 9
r 0.045123 0 2 tcp 1040 ------- 0 0.0 3.0 3 6
+ 0.045123 2 3 tcp 1040 ------- 0 0.0 3.0 3 6
- 0.045123 2 3 tcp 1040 ------- 0 0.0 3.0 3 6
r 0.045146 0 2 tcp 1040 ------- 0 0.0 3.0 4 7
+ 0.045146 2 3 tcp 1040 ------- 0 0.0 3.0 4 7
r 0.045189 0 2 tcp 1040 ------- 0 0.0 3.0 5 8
+ 0.045189 2 3 tcp 1040 ------- 0 0.0 3.0 5 8
- 0.045189 2 3 tcp 1040 ------- 0 0.0 3.0 4 7
r 0.045212 0 2 tcp 1040 ------- 0 0.0 3.0 6 9
+ 0.045212 2 3 tcp 1040 ------- 0 0.0 3.0 6 9
- 0.045256 2 3 tcp 1040 ------- 0 0.0 3.0 5 8
- 0.045323 2 3 tcp 1040 ------- 0 0.0 3.0 6 9
r 0.050189 2 3 tcp 1040 ------- 0 0.0 3.0 3 6
+ 0.050189 3 2 ack 40 ------- 0 3.0 0.0 3 10
- 0.050189 3 2 ack 40 ------- 0 3.0 0.0 3 10
r 0.050256 2 3 tcp 1040 ------- 0 0.0 3.0 4 7
+ 0.050256 3 2 ack 40 ------- 0 3.0 0.0 4 11
- 0.050256 3 2 ack 40 ------- 0 3.0 0.0 4 11
r 0.050323 2 3 tcp 1040 ------- 0 0.0 3.0 5 8
+ 0.050323 3 2 ack 40 ------- 0 3.0 0.0 5 12
- 0.050323 3 2 ack 40 ------- 0 3.0 0.0 5 12
r 0.050389 2 3 tcp 1040 ------- 0 0.0 3.0 6 9
+ 0.050389 3 2 ack 40 ------- 0 3.0 0.0 6 13
- 0.050389 3 2 ack 40 ------- 0 3.0 0.0 6 13
r 0.055192 3 2 ack 40 ------- 0 3.0 0.0 3 10
+ 0.055192 2 0 ack 40 ------- 0 3.0 0.0 3 10
- 0.055192 2 0 ack 40 ------- 0 3.0 0.0 3 10
r 0.055259 3 2 ack 40 ------- 0 3.0 0.0 4 11
+ 0.055259 2 0 ack 40 ------- 0 3.0 0.0 4 11
- 0.055259 2 0 ack 40 ------- 0 3.0 0.0 4 11
r 0.055325 3 2 ack 40 ------- 0 3.0 0.0 5 12
+ 0.055325 2 0 ack 40 ------- 0 3.0 0.0 5 12
- 0.055325 2 0 ack 40 ------- 0 3.0 0.0 5 12
r 0.055392 3 2 ack 40 ------- 0 3.0 0.0 6 13
+ 0.055392 2 0 ack 40 ------- 0 3.0 0.0 6 13
- 0.055392 2 0 ack 40 ------- 0 3.0 0.0 6 13
r 0.060193 2 0 ack 40 ------- 0 3.0 0.0 3 10
+ 0.060193 0 2 tcp 1040 ------- 0 0.0 3.0 7 14
- 0.060193 0 2 tcp 1040 ------- 0 0.0 3.0 7 14
+ 0.060193 0 2 tcp 1040 ------- 0 0.0 3.0 8 15
- 0.060216 0 2 tcp 1040 ------- 0 0.0 3.0 8 15
r 0.060259 2 0 ack 40 ------- 0 3.0 0.0 4 11
+ 0.060259 0 2 tcp 1040 ------- 0 0.0 3.0 9 16
- 0.060259 0 2 tcp 1040 ------- 0 0.0 3.0 9 16
+ 0.060259 0 2 tcp 1040 ------- 0 0.0 3.0 10 17
- 0.060282 0 2 tcp 1040 ------- 0 0.0 3.0 10 17
r 0.060326 2 0 ack 40 ------- 0 3.0 0.0 5 12
+ 0.060326 0 2 tcp 1040 ------- 0 0.0 3.0 11 18
- 0.060326 0 2 tcp 1040 ------- 0 0.0 3.0 11 18
+ 0.060326 0 2 tcp 1040 ------- 0 0.0 3.0 12 19
- 0.060349 0 2 tcp 1040 ------- 0 0.0 3.0 12 19
r 0.060393 2 0 ack 40 ------- 0 3.0 0.0 6 13
+ 0.060393 0 2 tcp 1040 ------- 0 0.0 3.0 13 20
- 0.060393 0 2 tcp 1040 ------- 0 0.0 3.0 13 20
+ 0.060393 0 2 tcp 1040 ------- 0 0.0 3.0 14 21
- 0.060416 0 2 tcp 1040 ------- 0 0.0 3.0 14 21
r 0.065216 0 2 tcp 1040 ------- 0 0.0 3.0 7 14
+ 0.065216 2 3 tcp 1040 ------- 0 0.0 3.0 7 14
- 0.065216 2 3 tcp 1040 ------- 0 0.0 3.0 7 14
r 0.065239 0 2 tcp 1040 ------- 0 0.0 3.0 8 15
+ 0.065239 2 3 tcp 1040 ------- 0 0.0 3.0 8 15
r 0.065282 0 2 tcp 1040 ------- 0 0.0 3.0 9 16
+ 0.065282 2 3 tcp 1040 ------- 0 0.0 3.0 9 16
- 0.065282 2 3 tcp 1040 ------- 0 0.0 3.0 8 15
r 0.065305 0 2 tcp 1040 ------- 0 0.0 3.0 10 17
+ 0.065305 2 3 tcp 1040 ------- 0 0.0 3.0 10 17
r 0.065349 0 2 tcp 1040 ------- 0 0.0 3.0 11 18
+ 0.065349 2 3 tcp 1040 ------- 0 0.0 3.0 11 18
- 0.065349 2 3 tcp 1040 ------- 0 0.0 3.0 9 16
r 0.065372 0 2 tcp 1040 ------- 0 0.0 3.0 12 19
+ 0.065372 2 3 tcp 1040 ------- 0 0.0 3.0 12 19
r 0.065416 0 2 tcp 1040 ------- 0 0.0 3.0 13 20
+ 0.065416 2 3 tcp 1040 ------- 0 0.0 3.0 13 20
- 0.065416 2 3 tcp 1040 ------- 0 0.0 3.0 10 17
r 0.065439 0 2 tcp 1040 ------- 0 0.0 3.0 14 21
+ 0.065439 2 3 tcp 1040 ------- 0 0.0 3.0 14 21
- 0.065482 2 3 tcp 1040 ------- 0 0.0 3.0 11 18
- 0.065549 2 3 tcp 1040 ------- 0 0.0 3.0 12 19
- 0.065616 2 3 tcp 1040 ------- 0 0.0 3.0 13 20
- 0.065682 2 3 tcp 1040 ------- 0 0.0 3.0 14 21
r 0.070282 2 3 tcp 1040 ------- 0 0.0 3.0 7 14
+ 0.070282 3 2 ack 40 ------- 0 3.0 0.0 7 22
- 0.070282 3 2 ack 40 ------- 0 3.0 0.0 7 22
r 0.070349 2 3 tcp 1040 ------- 0 0.0 3.0 8 15
+ 0.070349 3 2 ack 40 ------- 0 3.0 0.0 8 23
- 0.070349 3 2 ack 40 ------- 0 3.0 0.0 8 23
r 0.070416 2 3 tcp 1040 ------- 0 0.0 3.0 9 16
+ 0.070416 3 2 ack 40 ------- 0 3.0 0.0 9 24
- 0.070416 3 2 ack 40 ------- 0 3.0 0.0 9 24
r 0.070482 2 3 tcp 1040 ------- 0 0.0 3.0 10 17
+ 0.070482 3 2 ack 40 ------- 0 3.0 0.0 10 25
- 0.070482 3 2 ack 40 ------- 0 3.0 0.0 10 25
r 0.070549 2 3 tcp 1040 ------- 0 0.0 3.0 11 18
+ 0.070549 3 2 ack 40 ------- 0 3.0 0.0 11 26
- 0.070549 3 2 ack 40 ------- 0 3.0 0.0 11 26
r 0.070616 2 3 tcp 1040 ------- 0 0.0 3.0 12 19
+ 0.070616 3 2 ack 40 ------- 0 3.0 0.0 12 27
- 0.070616 3 2 ack 40 ------- 0 3.0 0.0 12 27
r 0.070682 2 3 tcp 1040 ------- 0 0.0 3.0 13 20
+ 0.070682 3 2 ack 40 ------- 0 3.0 0.0 13 28
- 0.070682 3 2 ack 40 ------- 0 3.0 0.0 13 28
r 0.070749 2 3 tcp 1040 ------- 0 0.0 3.0 14 21
+ 0.070749 3 2 ack 40 ------- 0 3.0 0.0 14 29
- 0.070749 3 2 ack 40 ------- 0 3.0 0.0 14 29
r 0.075285 3 2 ack 40 ------- 0 3.0 0.0 7 22
+ 0.075285 2 0 ack 40 ------- 0 3.0 0.0 7 22
- 0.075285 2 0 ack 40 ------- 0 3.0 0.0 7 22
r 0.075352 3 2 ack 40 ------- 0 3.0 0.0 8 23
+ 0.075352 2 0 ack 40 ------- 0 3.0 0.0 8 23
- 0.075352 2 0 ack 40 ------- 0 3.0 0.0 8 23
r 0.075418 3 2 ack 40 ------- 0 3.0 0.0 9 24
+ 0.075418 2 0 ack 40 ------- 0 3.0 0.0 9 24
- 0.075418 2 0 ack 40 ------- 0 3.0 0.0 9 24
r 0.075485 3 2 ack 40 ------- 0 3.0 0.0 10 25
+ 0.075485 2 0 ack 40 ------- 0 3.0 0.0 10 25
- 0.075485 2 0 ack 40 ------- 0 3.0 0.0 10 25
r 0.075552 3 2 ack 40 ------- 0 3.0 0.0 11 26
+ 0.075552 2 0 ack 40 ------- 0 3.0 0.0 11 26
- 0.075552 2 0 ack 40 ------- 0 3.0 0.0 11 26
r 0.075618 3 2 ack 40 ------- 0 3.0 0.0 12 27
+ 0.075618 2 0 ack 40 ------- 0 3.0 0.0 12 27
- 0.075618 2 0 ack 40 ------- 0 3.0 0.0 12 27
r 0.075685 3 2 ack 40 ------- 0 3.0 0.0 13 28
+ 0.075685 2 0 ack 40 ------- 0 3.0 0.0 13 28
- 0.075685 2 0 ack 40 ------- 0 3.0 0.0 13 28
r 0.075752 3 2 ack 40 ------- 0 3.0 0.0 14 29
+ 0.075752 2 0 ack 40 ------- 0 3.0 0.0 14 29
- 0.075752 2 0 ack 40 ------- 0 3.0 0.0 14 29
r 0.080286 2 0 ack 40 ------- 0 3.0 0.0 7 22
+ 0.080286 0 2 tcp 1040 ------- 0 0.0 3.0 15 30
- 0.080286 0 2 tcp 1040 ------- 0 0.0 3.0 15 30
+ 0.080286 0 2 tcp 1040 ------- 0 0.0 3.0 16 31
- 0.080309 0 2 tcp 1040 ------- 0 0.0 3.0 16 31
r 0.080352 2 0 ack 40 ------- 0 3.0 0.0 8 23
+ 0.080352 0 2 tcp 1040 ------- 0 0.0 3.0 17 32
- 0.080352 0 2 tcp 1040 ------- 0 0.0 3.0 17 32
+ 0.080352 0 2 tcp 1040 ------- 0 0.0 3.0 18 33
- 0.080375 0 2 tcp 1040 ------- 0 0.0 3.0 18 33
r 0.080419 2 0 ack 40 ------- 0 3.0 0.0 9 24
+ 0.080419 0 2 tcp 1040 ------- 0 0.0 3.0 19 34
- 0.080419 0 2 tcp 1040 ------- 0 0.0 3.0 19 34
+ 0.080419 0 2 tcp 1040 ------- 0 0.0 3.0 20 35
- 0.080442 0 2 tcp 1040 ------- 0 0.0 3.0 20 35
r 0.080486 2 0 ack 40 ------- 0 3.0 0.0 10 25
+ 0.080486 0 2 tcp 1040 ------- 0 0.0 3.0 21 36
- 0.080486 0 2 tcp 1040 ------- 0 0.0 3.0 21 36
+ 0.080486 0 2 tcp 1040 ------- 0 0.0 3.0 22 37
- 0.080509 0 2 tcp 1040 ------- 0 0.0 3.0 22 37
r 0.080552 2 0 ack 40 ------- 0 3.0 0.0 11 26
+ 0.080552 0 2 tcp 1040 ------- 0 0.0 3.0 23 38
- 0.080552 0 2 tcp 1040 ------- 0 0.0 3.0 23 38
+ 0.080552 0 2 tcp 1040 ------- 0 0.0 3.0 24 39
- 0.080575 0 2 tcp 1040 ------- 0 0.0 3.0 24 39
r 0.080619 2 0 ack 40 ------- 0 3.0 0.0 12 27
+ 0.080619 0 2 tcp 1040 ------- 0 0.0 3.0 25 40
- 0.080619 0 2 tcp 1040 ------- 0 0.0 3.0 25 40
+ 0.080619 0 2 tcp 1040 ------- 0 0.0 3.0 26 41
- 0.080642 0 2 tcp 1040 ------- 0 0.0 3.0 26 41
r 0.080686 2 0 ack 40 ------- 0 3.0 0.0 13 28
+ 0.080686 0 2 tcp 1040 ------- 0 0.0 3.0 27 42
- 0.080686 0 2 tcp 1040 ------- 0 0.0 3.0 27 42
+ 0.080686 0 2 tcp 1040 ------- 0 0.0 3.0 28 43
- 0.080709 0 2 tcp 1040 ------- 0 0.0 3.0 28 43
r 0.080752 2 0 ack 40 ------- 0 3.0 0.0 14 29
+ 0.080752 0 2 tcp 1040 ------- 0 0.0 3.0 29 44
- 0.080752 0 2 tcp 1040 ------- 0 0.0 3.0 29 44
+ 0.080752 0 2 tcp 1040 ------- 0 0.0 3.0 30 45
- 0.080775 0 2 tcp 1040 ------- 0 0.0 3.0 30 45
r 0.085309 0 2 tcp 1040 ------- 0 0.0 3.0 15 30
+ 0.085309 2 3 tcp 1040 ------- 0 0.0 3.0 15 30
- 0.085309 2 3 tcp 1040 ------- 0 0.0 3.0 15 30
r 0.085332 0 2 tcp 1040 ------- 0 0.0 3.0 16 31
+ 0.085332 2 3 tcp 1040 ------- 0 0.0 3.0 16 31
r 0.085375 0 2 tcp 1040 ------- 0 0.0 3.0 17 32
+ 0.085375 2 3 tcp 1040 ------- 0 0.0 3.0 17 32
- 0.085375 2 3 tcp 1040 ------- 0 0.0 3.0 16 31
r 0.085398 0 2 tcp 1040 ------- 0 0.0 3.0 18 33
+ 0.085398 2 3 tcp 1040 ------- 0 0.0 3.0 18 33
r 0.085442 0 2 tcp 1040 ------- 0 0.0 3.0 19 34
+ 0.085442 2 3 tcp 1040 ------- 0 0.0 3.0 19 34
- 0.085442 2 3 tcp 1040 ------- 0 0.0 3.0 17 32
r 0.085465 0 2 tcp 1040 ------- 0 0.0 3.0 20 35
+ 0.085465 2 3 tcp 1040 ------- 0 0.0 3.0 20 35
r 0.085509 0 2 tcp 1040 ------- 0 0.0 3.0 21 36
+ 0.085509 2 3 tcp 1040 ------- 0 0.0 3.0 21 36
- 0.085509 2 3 tcp 1040 ------- 0 0.0 3.0 18 33
r 0.085532 0 2 tcp 1040 ------- 0 0.0 3.0 22 37
+ 0.085532 2 3 tcp 1040 ------- 0 0.0 3.0 22 37
r 0.085575 0 2 tcp 1040 ------- 0 0.0 3.0 23 38
+ 0.085575 2 3 tcp 1040 ------- 0 0.0 3.0 23 38
- 0.085575 2 3 tcp 1040 ------- 0 0.0 3.0 19 34
r 0.085598 0 2 tcp 1040 ------- 0 0.0 3.0 24 39
+ 0.085598 2 3 tcp 1040 ------- 0 0.0 3.0 24 39
r 0.085642 0 2 tcp 1040 ------- 0 0.0 3.0 25 40
+ 0.085642 2 3 tcp 1040 ------- 0 0.0 3.0 25 40
- 0.085642 2 3 tcp 1040 ------- 0 0.0 3.0 20 35
r 0.085665 0 2 tcp 1040 ------- 0 0.0 3.0 26 41
+ 0.085665 2 3 tcp 1040 ------- 0 0.0 3.0 26 41
r 0.085709 0 2 tcp 1040 ------- 0 0.0 3.0 27 42
+ 0.085709 2 3 tcp 1040 ------- 0 0.0 3.0 27 42
- 0.085709 2 3 tcp 1040 ------- 0 0.0 3.0 21 36
r 0.085732 0 2 tcp 1040 ------- 0 0.0 3.0 28 43
+ 0.085732 2 3 tcp 1040 ------- 0 0.0 3.0 28 43
r 0.085775 0 2 tcp 1040 ------- 0 0.0 3.0 29 44
+ 0.085775 2 3 tcp 1040 ------- 0 0.0 3.0 29 44
- 0.085775 2 3 tcp 1040 ------- 0 0.0 3.0 22 37
r 0.085798 0 2 tcp 1040 ------- 0 0.0 3.0 30 45
+ 0.085798 2 3 tcp 1040 ------- 0 0.0 3.0 30 45
- 0.085842 2 3 tcp 1040 ------- 0 0.0 3.0 23 38
- 0.085909 2 3 tcp 1040 ------- 0 0.0 3.0 24 39
- 0.085975 2 3 tcp 1040 ------- 0 0.0 3.0 25 40
- 0.086042 2 3 tcp 1040 ------- 0 0.0 3.0 26 41
- 0.086109 2 3 tcp 1040 ------- 0 0.0 3.0 27 42
- 0.086175 2 3 tcp 1040 ------- 0 0.0 3.0 28 43
- 0.086242 2 3 tcp 1040 ------- 0 0.0 3.0 29 44
- 0.086309 2 3 tcp 1040 ------- 0 0.0 3.0 30 45
r 0.090375 2 3 tcp 1040 ------- 0 0.0 3.0 15 30
+ 0.090375 3 2 ack 40 ------- 0 3.0 0.0 15 46
- 0.090375 3 2 ack 40 ------- 0 3.0 0.0 15 46
r 0.090442 2 3 tcp 1040 ------- 0 0.0 3.0 16 31
+ 0.090442 3 2 ack 40 ------- 0 3.0 0.0 16 47
- 0.090442 3 2 ack 40 ------- 0 3.0 0.0 16 47
r 0.090509 2 3 tcp 1040 ------- 0 0.0 3.0 17 32
+ 0.090509 3 2 ack 40 ------- 0 3.0 0.0 17 48
- 0.090509 3 2 ack 40 ------- 0 3.0 0.0 17 48
r 0.090575 2 3 tcp 1040 ------- 0 0.0 3.0 18 33
+ 0.090575 3 2 ack 40 ------- 0 3.0 0.0 18 49
- 0.090575 3 2 ack 40 ------- 0 3.0 0.0 18 49
r 0.090642 2 3 tcp 1040 ------- 0 0.0 3.0 19 34
+ 0.090642 3 2 ack 40 ------- 0 3.0 0.0 19 50
- 0.090642 3 2 ack 40 ------- 0 3.0 0.0 19 50
r 0.090709 2 3 tcp 1040 ------- 0 0.0 3.0 20 35
+ 0.090709 3 2 ack 40 ------- 0 3.0 0.0 20 51
- 0.090709 3 2 ack 40 ------- 0 3.0 0.0 20 51
r 0.090775 2 3 tcp 1040 ------- 0 0.0 3.0 21 36
+ 0.090775 3 2 ack 40 ------- 0 3.0 0.0 21 52
- 0.090775 3 2 ack 40 ------- 0 3.0 0.0 21 52
r 0.090842 2 3 tcp 1040 ------- 0 0.0 3.0 22 37
+ 0.090842 3 2 ack 40 ------- 0 3.0 0.0 22 53
- 0.090842 3 2 ack 40 ------- 0 3.0 0.0 22 53
r 0.090909 2 3 tcp 1040 ------- 0 0.0 3.0 23 38
+ 0.090909 3 2 ack 40 ------- 0 3.0 0.0 23 54
- 0.090909 3 2 ack 40 ------- 0 3.0 0.0 23 54
r 0.090975 2 3 tcp 1040 ------- 0 0.0 3.0 24 39
+ 0.090975 3 2 ack 40 ------- 0 3.0 0.0 24 55
- 0.090975 3 2 ack 40 ------- 0 3.0 0.0 24 55
r 0.091042 2 3 tcp 1040 ------- 0 0.0 3.0 25 40
+ 0.091042 3 2 ack 40 ------- 0 3.0 0.0 25 56
- 0.091042 3 2 ack 40 ------- 0 3.0 0.0 25 56
r 0.091109 2 3 tcp 1040 ------- 0 0.0 3.0 26 41
+ 0.091109 3 2 ack 40 ------- 0 3.0 0.0 26 57
- 0.091109 3 2 ack 40 ------- 0 3.0 0.0 26 57
r 0.091175 2 3 tcp 1040 ------- 0 0.0 3.0 27 42
+ 0.091175 3 2 ack 40 ------- 0 3.0 0.0 27 58
- 0.091175 3 2 ack 40 ------- 0 3.0 0.0 27 58
r 0.091242 2 3 tcp 1040 ------- 0 0.0 3.0 28 43
+ 0.091242 3 2 ack 40 ------- 0 3.0 0.0 28 59
- 0.091242 3 2 ack 40 ------- 0 3.0 0.0 28 59
r 0.091309 2 3 tcp 1040 ------- 0 0.0 3.0 29 44
+ 0.091309 3 2 ack 40 ------- 0 3.0 0.0 29 60
- 0.091309 3 2 ack 40 ------- 0 3.0 0.0 29 60
r 0.091375 2 3 tcp 1040 ------- 0 0.0 3.0 30 45
+ 0.091375 3 2 ack 40 ------- 0 3.0 0.0 30 61
- 0.091375 3 2 ack 40 ------- 0 3.0 0.0 30 61
r 0.095378 3 2 ack 40 ------- 0 3.0 0.0 15 46
+ 0.095378 2 0 ack 40 ------- 0 3.0 0.0 15 46
- 0.095378 2 0 ack 40 ------- 0 3.0 0.0 15 46
r 0.095445 3 2 ack 40 ------- 0 3.0 0.0 16 47
+ 0.095445 2 0 ack 40 ------- 0 3.0 0.0 16 47
- 0.095445 2 0 ack 40 ------- 0 3.0 0.0 16 47
r 0.095511 3 2 ack 40 ------- 0 3.0 0.0 17 48
+ 0.095511 2 0 ack 40 ------- 0 3.0 0.0 17 48
- 0.095511 2 0 ack 40 ------- 0 3.0 0.0 17 48
r 0.095578 3 2 ack 40 ------- 0 3.0 0.0 18 49
+ 0.095578 2 0 ack 40 ------- 0 3.0 0.0 18 49
- 0.095578 2 0 ack 40 ------- 0 3.0 0.0 18 49
r 0.095645 3 2 ack 40 ------- 0 3.0 0.0 19 50
+ 0.095645 2 0 ack 40 ------- 0 3.0 0.0 19 50
- 0.095645 2 0 ack 40 ------- 0 3.0 0.0 19 50
r 0.095711 3 2 ack 40 ------- 0 3.0 0.0 20 51
+ 0.095711 2 0 ack 40 ------- 0 3.0 0.0 20 51
- 0.095711 2 0 ack 40 ------- 0 3.0 0.0 20 51
r 0.095778 3 2 ack 40 ------- 0 3.0 0.0 21 52
+ 0.095778 2 0 ack 40 ------- 0 3.0 0.0 21 52
- 0.095778 2 0 ack 40 ------- 0 3.0 0.0 21 52
r 0.095845 3 2 ack 40 ------- 0 3.0 0.0 22 53
+ 0.095845 2 0 ack 40 ------- 0 3.0 0.0 22 53
- 0.095845 2 0 ack 40 ------- 0 3.0 0.0 22 53
r 0.095911 3 2 ack 40 ------- 0 3.0 0.0 23 54
+ 0.095911 2 0 ack 40 ------- 0 3.0 0.0 23 54
- 0.095911 2 0 ack 40 ------- 0 3.0 0.0 23 54
r 0.095978 3 2 ack 40 ------- 0 3.0 0.0 24 55
+ 0.095978 2 0 ack 40 ------- 0 3.0 0.0 24 55
- 0.095978 2 0 ack 40 ------- 0 3.0 0.0 24 55
r 0.096045 3 2 ack 40 ------- 0 3.0 0.0 25 56
+ 0.096045 2 0 ack 40 ------- 0 3.0 0.0 25 56
- 0.096045 2 0 ack 40 ------- 0 3.0 0.0 25 56
r 0.096111 3 2 ack 40 ------- 0 3.0 0.0 26 57
+ 0.096111 2 0 ack 40 ------- 0 3.0 0.0 26 57
- 0.096111 2 0 ack 40 ------- 0 3.0 0.0 26 57
r 0.096178 3 2 ack 40 ------- 0 3.0 0.0 27 58
+ 0.096178 2 0 ack 40 ------- 0 3.0 0.0 27 58
- 0.096178 2 0 ack 40 ------- 0 3.0 0.0 27 58
r 0.096245 3 2 ack 40 ------- 0 3.0 0.0 28 59
+ 0.096245 2 0 ack 40 ------- 0 3.0 0.0 28 59
- 0.096245 2 0 ack 40 ------- 0 3.0 0.0 28 59
r 0.096311 3 2 ack 40 ------- 0 3.0 0.0 29 60
+ 0.096311 2 0 ack 40 ------- 0 3.0 0.0 29 60
- 0.096311 2 0 ack 40 ------- 0 3.0 0.0 29 60
r 0.096378 3 2 ack 40 ------- 0 3.0 0.0 30 61
+ 0.096378 2 0 ack 40 ------- 0 3.0 0.0 30 61
- 0.096378 2 0 ack 40 ------- 0 3.0 0.0 30 61
r 0.100379 2 0 ack 40 ------- 0 3.0 0.0 15 46
+ 0.100379 0 2 tcp 1040 ------- 0 0.0 3.0 31 62
- 0.100379 0 2 tcp 1040 ------- 0 0.0 3.0 31 62
+ 0.100379 0 2 tcp 1040 ------- 0 0.0 3.0 32 63
- 0.100402 0 2 tcp 1040 ------- 0 0.0 3.0 32 63
r 0.100445 2 0 ack 40 ------- 0 3.0 0.0 16 47
+ 0.100445 0 2 tcp 1040 ------- 0 0.0 3.0 33 64
- 0.100445 0 2 tcp 1040 ------- 0 0.0 3.0 33 64
+ 0.100445 0 2 tcp 1040 ------- 0 0.0 3.0 34 65
- 0.100468 0 2 tcp 1040 ------- 0 0.0 3.0 34 65
r 0.100512 2 0 ack 40 ------- 0 3.0 0.0 17 48
+ 0.100512 0 2 tcp 1040 ------- 0 0.0 3.0 35 66
- 0.100512 0 2 tcp 1040 ------- 0 0.0 3.0 35 66
+ 0.100512 0 2 tcp 1040 ------- 0 0.0 3.0 36 67
- 0.100535 0 2 tcp 1040 ------- 0 0.0 3.0 36 67
r 0.100579 2 0 ack 40 ------- 0 3.0 0.0 18 49
+ 0.100579 0 2 tcp 1040 ------- 0 0.0 3.0 37 68
- 0.100579 0 2 tcp 1040 ------- 0 0.0 3.0 37 68
+ 0.100579 0 2 tcp 1040 ------- 0 0.0 3.0 38 69
- 0.100602 0 2 tcp 1040 ------- 0 0.0 3.0 38 69
r 0.100645 2 0 ack 40 ------- 0 3.0 0.0 19 50
+ 0.100645 0 2 tcp 1040 ------- 0 0.0 3.0 39 70
- 0.100645 0 2 tcp 1040 ------- 0 0.0 3.0 39 70
r 0.100712 2 0 ack 40 ------- 0 3.0 0.0 20 51
+ 0.100712 0 2 tcp 1040 ------- 0 0.0 3.0 40 71
- 0.100712 0 2 tcp 1040 ------- 0 0.0 3.0 40 71
r 0.100779 2 0 ack 40 ------- 0 3.0 0.0 21 52
+ 0.100779 0 2 tcp 1040 ------- 0 0.0 3.0 41 72
- 0.100779 0 2 tcp 1040 ------- 0 0.0 3.0 41 72
r 0.100845 2 0 ack 40 ------- 0 3.0 0.0 22 53
+ 0.100845 0 2 tcp 1040 ------- 0 0.0 3.0 42 73
- 0.100845 0 2 tcp 1040 ------- 0 0.0 3.0 42 73
r 0.100912 2 0 ack 40 ------- 0 3.0 0.0 23 54
+ 0.100912 0 2 tcp 1040 ------- 0 0.0 3.0 43 74
- 0.100912 0 2 tcp 1040 ------- 0 0.0 3.0 43 74
r 0.100979 2 0 ack 40 ------- 0 3.0 0.0 24 55
+ 0.100979 0 2 tcp 1040 ------- 0 0.0 3.0 44 75
- 0.100979 0 2 tcp 1040 ------- 0 0.0 3.0 44 75
r 0.101045 2 0 ack 40 ------- 0 3.0 0.0 25 56
+ 0.101045 0 2 tcp 1040 ------- 0 0.0 3.0 45 76
- 0.101045 0 2 tcp 1040 ------- 0 0.0 3.0 45 76
r 0.101112 2 0 ack 40 ------- 0 3.0 0.0 26 57
+ 0.101112 0 2 tcp 1040 ------- 0 0.0 3.0 46 77
- 0.101112 0 2 tcp 1040 ------- 0 0.0 3.0 46 77
r 0.101179 2 0 ack 40 ------- 0 3.0 0.0 27 58
+ 0.101179 0 2 tcp 1040 ------- 0 0.0 3.0 47 78
- 0.101179 0 2 tcp 1040 ------- 0 0.0 3.0 47 78
r 0.101245 2 0 ack 40 ------- 0 3.0 0.0 28 59
+ 0.101245 0 2 tcp 1040 ------- 0 0.0 3.0 48 79
- 0.101245 0 2 tcp 1040 ------- 0 0.0 3.0 48 79
r 0.101312 2 0 ack 40 ------- 0 3.0 0.0 29 60
+ 0.101312 0 2 tcp 1040 ------- 0 0.0 3.0 49 80
- 0.101312 0 2 tcp 1040 ------- 0 0.0 3.0 49 80
r 0.101379 2 0 ack 40 ------- 0 3.0 0.0 30 61
+ 0.101379 0 2 tcp 1040 ------- 0 0.0 3.0 50 81
- 0.101379 0 2 tcp 1040 ------- 0 0.0 3.0 50 81
r 0.105402 0 2 tcp 1040 ------- 0 0.0 3.0 31 62
+ 0.105402 2 3 tcp 1040 ------- 0 0.0 3.0 31 62
- 0.105402 2 3 tcp 1040 ------- 0 0.0 3.0 31 62
r 0.105424 0 2 tcp 1040 ------- 0 0.0 3.0 32 63
+ 0.105424 2 3 tcp 1040 ------- 0 0.0 3.0 32 63
r 0.105468 0 2 tcp 1040 ------- 0 0.0 3.0 33 64
+ 0.105468 2 3 tcp 1040 ------- 0 0.0 3.0 33 64
- 0.105468 2 3 tcp 1040 ------- 0 0.0 3.0 32 63
r 0.105491 0 2 tcp 1040 ------- 0 0.0 3.0 34 65
+ 0.105491 2 3 tcp 1040 ------- 0 0.0 3.0 34 65
r 0.105535 0 2 tcp 1040 ------- 0 0.0 3.0 35 66
+ 0.105535 2 3 tcp 1040 ------- 0 0.0 3.0 35 66
- 0.105535 2 3 tcp 1040 ------- 0 0.0 3.0 33 64
r 0.105558 0 2 tcp 1040 ------- 0 0.0 3.0 36 67
+ 0.105558 2 3 tcp 1040 ------- 0 0.0 3.0 36 67
r 0.105602 0 2 tcp 1040 ------- 0 0.0 3.0 37 68
+ 0.105602 2 3 tcp 1040 ------- 0 0.0 3.0 37 68
- 0.105602 2 3 tcp 1040 ------- 0 0.0 3.0 34 65
r 0.105624 0 2 tcp 1040 ------- 0 0.0 3.0 38 69
+ 0.105624 2 3 tcp 1040 ------- 0 0.0 3.0 38 69
r 0.105668 0 2 tcp 1040 ------- 0 0.0 3.0 39 70
+ 0.105668 2 3 tcp 1040 ------- 0 0.0 3.0 39 70
- 0.105668 2 3 tcp 1040 ------- 0 0.0 3.0 35 66
r 0.105735 0 2 tcp 1040 ------- 0 0.0 3.0 40 71
+ 0.105735 2 3 tcp 1040 ------- 0 0.0 3.0 40 71
- 0.105735 2 3 tcp 1040 ------- 0 0.0 3.0 36 67
r 0.105802 0 2 tcp 1040 ------- 0 0.0 3.0 41 72
+ 0.105802 2 3 tcp 1040 ------- 0 0.0 3.0 41 72
- 0.105802 2 3 tcp 1040 ------- 0 0.0 3.0 37 68
r 0.105868 0 2 tcp 1040 ------- 0 0.0 3.0 42 73
+ 0.105868 2 3 tcp 1040 ------- 0 0.0 3.0 42 73
- 0.105868 2 3 tcp 1040 ------- 0 0.0 3.0 38 69
r 0.105935 0 2 tcp 1040 ------- 0 0.0 3.0 43 74
+ 0.105935 2 3 tcp 1040 ------- 0 0.0 3.0 43 74
- 0.105935 2 3 tcp 1040 ------- 0 0.0 3.0 39 70
r 0.106002 0 2 tcp 1040 ------- 0 0.0 3.0 44 75
+ 0.106002 2 3 tcp 1040 ------- 0 0.0 3.0 44 75
- 0.106002 2 3 tcp 1040 ------- 0 0.0 3.0 40 71
r 0.106068 0 2 tcp 1040 ------- 0 0.0 3.0 45 76
+ 0.106068 2 3 tcp 1040 ------- 0 0.0 3.0 45 76
- 0.106068 2 3 tcp 1040 ------- 0 0.0 3.0 41 72
r 0.106135 0 2 tcp 1040 ------- 0 0.0 3.0 46 77
+ 0.106135 2 3 tcp 1040 ------- 0 0.0 3.0 46 77
- 0.106135 2 3 tcp 1040 ------- 0 0.0 3.0 42 73
r 0.106202 0 2 tcp 1040 ------- 0 0.0 3.0 47 78
+ 0.106202 2 3 tcp 1040 ------- 0 0.0 3.0 47 78
- 0.106202 2 3 tcp 1040 ------- 0 0.0 3.0 43 74
r 0.106268 0 2 tcp 1040 ------- 0 0.0 3.0 48 79
+ 0.106268 2 3 tcp 1040 ------- 0 0.0 3.0 48 79
- 0.106268 2 3 tcp 1040 ------- 0 0.0 3.0 44 75
r 0.106335 0 2 tcp 1040 ------- 0 0.0 3.0 49 80
+ 0.106335 2 3 tcp 1040 ------- 0 0.0 3.0 49 80
- 0.106335 2 3 tcp 1040 ------- 0 0.0 3.0 45 76
r 0.106402 0 2 tcp 1040 ------- 0 0.0 3.0 50 81
+ 0.106402 2 3 tcp 1040 ------- 0 0.0 3.0 50 81
- 0.106402 2 3 tcp 1040 ------- 0 0.0 3.0 46 77
- 0.106468 2 3 tcp 1040 ------- 0 0.0 3.0 47 78
- 0.106535 2 3 tcp 1040 ------- 0 0.0 3.0 48 79
- 0.106602 2 3 tcp 1040 ------- 0 0.0 3.0 49 80
- 0.106668 2 3 tcp 1040 ------- 0 0.0 3.0 50 81
r 0.110468 2 3 tcp 1040 ------- 0 0.0 3.0 31 62
+ 0.110468 3 2 ack 40 ------- 0 3.0 0.0 31 82
- 0.110468 3 2 ack 40 ------- 0 3.0 0.0 31 82
r 0.110535 2 3 tcp 1040 ------- 0 0.0 3.0 32 63
+ 0.110535 3 2 ack 40 ------- 0 3.0 0.0 32 83
- 0.110535 3 2 ack 40 ------- 0 3.0 0.0 32 83
r 0.110602 2 3 tcp 1040 ------- 0 0.0 3.0 33 64
+ 0.110602 3 2 ack 40 ------- 0 3.0 0.0 33 84
- 0.110602 3 2 ack 40 ------- 0 3.0 0.0 33 84
r 0.110668 2 3 tcp 1040 ------- 0 0.0 3.0 34 65
+ 0.110668 3 2 ack 40 ------- 0 3.0 0.0 34 85
- 0.110668 3 2 ack 40 ------- 0 3.0 0.0 34 85
r 0.110735 2 3 tcp 1040 ------- 0 0.0 3.0 35 66
+ 0.110735 3 2 ack 40 ------- 0 3.0 0.0 35 86
- 0.110735 3 2 ack 40 ------- 0 3.0 0.0 35 86
r 0.110802 2 3 tcp 1040 ------- 0 0.0 3.0 36 67
+ 0.110802 3 2 ack 40 ------- 0 3.0 0.0 36 87
- 0.110802 3 2 ack 40 ------- 0 3.0 0.0 36 87
r 0.110868 2 3 tcp 1040 ------- 0 0.0 3.0 37 68
+ 0.110868 3 2 ack 40 ------- 0 3.0 0.0 37 88
- 0.110868 3 2 ack 40 ------- 0 3.0 0.0 37 88
r 0.110935 2 3 tcp 1040 ------- 0 0.0 3.0 38 69
+ 0.110935 3 2 ack 40 ------- 0 3.0 0.0 38 89
- 0.110935 3 2 ack 40 ------- 0 3.0 0.0 38 89
r 0.111002 2 3 tcp 1040 ------- 0 0.0 3.0 39 70
+ 0.111002 3 2 ack 40 ------- 0 3.0 0.0 39 90
- 0.111002 3 2 ack 40 ------- 0 3.0 0.0 39 90
r 0.111068 2 3 tcp 1040 ------- 0 0.0 3.0 40 71
+ 0.111068 3 2 ack 40 ------- 0 3.0 0.0 40 91
- 0.111068 3 2 ack 40 ------- 0 3.0 0.0 40 91
r 0.111135 2 3 tcp 1040 ------- 0 0.0 3.0 41 72
+ 0.111135 3 2 ack 40 ------- 0 3.0 0.0 41 92
- 0.111135 3 2 ack 40 ------- 0 3.0 0.0 41 92
r 0.111202 2 3 tcp 1040 ------- 0 0.0 3.0 42 73
+ 0.111202 3 2 ack 40 ------- 0 3.0 0.0 42 93
- 0.111202 3 2 ack 40 ------- 0 3.0 0.0 42 93
r 0.111268 2 3 tcp 1040 ------- 0 0.0 3.0 43 74
+ 0.111268 3 2 ack 40 ------- 0 3.0 0.0 43 94
- 0.111268 3 2 ack 40 ------- 0 3.0 0.0 43 94
r 0.111335 2 3 tcp 1040 ------- 0 0.0 3.0 44 75
+ 0.111335 3 2 ack 40 ------- 0 3.0 0.0 44 95
- 0.111335 3 2 ack 40 ------- 0 3.0 0.0 44 95
r 0.111402 2 3 tcp 1040 ------- 0 0.0 3.0 45 76
+ 0.111402 3 2 ack 40 ------- 0 3.0 0.0 45 96
- 0.111402 3 2 ack 40 ------- 0 3.0 0.0 45 96
r 0.111468 2 3 tcp 1040 ------- 0 0.0 3.0 46 77
+ 0.111468 3 2 ack 40 ------- 0 3.0 0.0 46 97
- 0.111468 3 2 ack 40 ------- 0 3.0 0.0 46 97
r 0.111535 2 3 tcp 1040 ------- 0 0.0 3.0 47 78
+ 0.111535 3 2 ack 40 ------- 0 3.0 0.0 47 98
- 0.111535 3 2 ack 40 ------- 0 3.0 0.0 47 98
r 0.111602 2 3 tcp 1040 ------- 0 0.0 3.0 48 79
+ 0.111602 3 2 ack 40 ------- 0 3.0 0.0 48 99
- 0.111602 3 2 ack 40 ------- 0 3.0 0.0 48 99
r 0.111668 2 3 tcp 1040 ------- 0 0.0 3.0 49 80
+ 0.111668 3 2 ack 40 ------- 0 3.0 0.0 49 100
- 0.111668 3 2 ack 40 ------- 0 3.0 0.0 49 100
r 0.111735 2 3 tcp 1040 ------- 0 0.0 3.0 50 81
+ 0.111735 3 2 ack 40 ------- 0 3.0 0.0 50 101
- 0.111735 3 2 ack 40 ------- 0 3.0 0.0 50 101
r 0.115471 3 2 ack 40 ------- 0 3.0 0.0 31 82
+ 0.115471 2 0 ack 40 ------- 0 3.0 0.0 31 82
- 0.115471 2 0 ack 40 ------- 0 3.0 0.0 31 82
r 0.115538 3 2 ack 40 ------- 0 3.0 0.0 32 83
+ 0.115538 2 0 ack 40 ------- 0 3.0 0.0 32 83
- 0.115538 2 0 ack 40 ------- 0 3.0 0.0 32 83
r 0.115604 3 2 ack 40 ------- 0 3.0 0.0 33 84
+ 0.115604 2 0 ack 40 ------- 0 3.0 0.0 33 84
- 0.115604 2 0 ack 40 ------- 0 3.0 0.0 33 84
r 0.115671 3 2 ack 40 ------- 0 3.0 0.0 34 85
+ 0.115671 2 0 ack 40 ------- 0 3.0 0.0 34 85
- 0.115671 2 0 ack 40 ------- 0 3.0 0.0 34 85
r 0.115738 3 2 ack 40 ------- 0 3.0 0.0 35 86
+ 0.115738 2 0 ack 40 ------- 0 3.0 0.0 35 86
- 0.115738 2 0 ack 40 ------- 0 3.0 0.0 35 86
r 0.115804 3 2 ack 40 ------- 0 3.0 0.0 36 87
+ 0.115804 2 0 ack 40 ------- 0 3.0 0.0 36 87
- 0.115804 2 0 ack 40 ------- 0 3.0 0.0 36 87
r 0.115871 3 2 ack 40 ------- 0 3.0 0.0 37 88
+ 0.115871 2 0 ack 40 ------- 0 3.0 0.0 37 88
- 0.115871 2 0 ack 40 ------- 0 3.0 0.0 37 88
r 0.115938 3 2 ack 40 ------- 0 3.0 0.0 38 89
+ 0.115938 2 0 ack 40 ------- 0 3.0 0.0 38 89
- 0.115938 2 0 ack 40 ------- 0 3.0 0.0 38 89
r 0.116004 3 2 ack 40 ------- 0 3.0 0.0 39 90
+ 0.116004 2 0 ack 40 ------- 0 3.0 0.0 39 90
- 0.116004 2 0 ack 40 ------- 0 3.0 0.0 39 90
r 0.116071 3 2 ack 40 ------- 0 3.0 0.0 40 91
+ 0.116071 2 0 ack 40 ------- 0 3.0 0.0 40 91
- 0.116071 2 0 ack 40 ------- 0 3.0 0.0 40 91
r 0.116138 3 2 ack 40 ------- 0 3.0 0.0 41 92
+ 0.116138 2 0 ack 40 ------- 0 3.0 0.0 41 92
- 0.116138 2 0 ack 40 ------- 0 3.0 0.0 41 92
r 0.116204 3 2 ack 40 ------- 0 3.0 0.0 42 93
+ 0.116204 2 0 ack 40 ------- 0 3.0 0.0 42 93
- 0.116204 2 0 ack 40 ------- 0 3.0 0.0 42 93
r 0.116271 3 2 ack 40 ------- 0 3.0 0.0 43 94
+ 0.116271 2 0 ack 40 ------- 0 3.0 0.0 43 94
- 0.116271 2 0 ack 40 ------- 0 3.0 0.0 43 94
r 0.116338 3 2 ack 40 ------- 0 3.0 0.0 44 95
+ 0.116338 2 0 ack 40 ------- 0 3.0 0.0 44 95
- 0.116338 2 0 ack 40 ------- 0 3.0 0.0 44 95
r 0.116404 3 2 ack 40 ------- 0 3.0 0.0 45 96
+ 0.116404 2 0 ack 40 ------- 0 3.0 0.0 45 96
- 0.116404 2 0 ack 40 ------- 0 3.0 0.0 45 96
r 0.116471 3 2 ack 40 ------- 0 3.0 0.0 46 97
+ 0.116471 2 0 ack 40 ------- 0 3.0 0.0 46 97
- 0.116471 2 0 ack 40 ------- 0 3.0 0.0 46 97
r 0.116538 3 2 ack 40 ------- 0 3.0 0.0 47 98
+ 0.116538 2 0 ack 40 ------- 0 3.0 0.0 47 98
- 0.116538 2 0 ack 40 ------- 0 3.0 0.0 47 98
r 0.116604 3 2 ack 40 ------- 0 3.0 0.0 48 99
+ 0.116604 2 0 ack 40 ------- 0 3.0 0.0 48 99
- 0.116604 2 0 ack 40 ------- 0 3.0 0.0 48 99
r 0.116671 3 2 ack 40 ------- 0 3.0 0.0 49 100
+ 0.116671 2 0 ack 40 ------- 0 3.0 0.0 49 100
- 0.116671 2 0 ack 40 ------- 0 3.0 0.0 49 100
r 0.116738 3 2 ack 40 ------- 0 3.0 0.0 50 101
+ 0.116738 2 0 ack 40 ------- 0 3.0 0.0 50 101
- 0.116738 2 0 ack 40 ------- 0 3.0 0.0 50 101
r 0.120472 2 0 ack 40 ------- 0 3.0 0.0 31 82
+ 0.120472 0 2 tcp 1040 ------- 0 0.0 3.0 51 102
- 0.120472 0 2 tcp 1040 ------- 0 0.0 3.0 51 102
r 0.120538 2 0 ack 40 ------- 0 3.0 0.0 32 83
+ 0.120538 0 2 tcp 1040 ------- 0 0.0 3.0 52 103
- 0.120538 0 2 tcp 1040 ------- 0 0.0 3.0 52 103
r 0.120605 2 0 ack 40 ------- 0 3.0 0.0 33 84
+ 0.120605 0 2 tcp 1040 ------- 0 0.0 3.0 53 104
- 0.120605 0 2 tcp 1040 ------- 0 0.0 3.0 53 104
r 0.120672 2 0 ack 40 ------- 0 3.0 0.0 34 85
+ 0.120672 0 2 tcp 1040 ------- 0 0.0 3.0 54 105
- 0.120672 0 2 tcp 1040 ------- 0 0.0 3.0 54 105
r 0.120738 2 0 ack 40 ------- 0 3.0 0.0 35 86
+ 0.120738 0 2 tcp 1040 ------- 0 0.0 3.0 55 106
- 0.120738 0 2 tcp 1040 ------- 0 0.0 3.0 55 106
r 0.120805 2 0 ack 40 ------- 0 3.0 0.0 36 87
+ 0.120805 0 2 tcp 1040 ------- 0 0.0 3.0 56 107
- 0.120805 0 2 tcp 1040 ------- 0 0.0 3.0 56 107
r 0.120872 2 0 ack 40 ------- 0 3.0 0.0 37 88
+ 0.120872 0 2 tcp 1040 ------- 0 0.0 3.0 57 108
- 0.120872 0 2 tcp 1040 ------- 0 0.0 3.0 57 108
r 0.120938 2 0 ack 40 ------- 0 3.0 0.0 38 89
+ 0.120938 0 2 tcp 1040 ------- 0 0.0 3.0 58 109
- 0.120938 0 2 tcp 1040 ------- 0 0.0 3.0 58 109
r 0.121005 2 0 ack 40 ------- 0 3.0 0.0 39 90
+ 0.121005 0 2 tcp 1040 ------- 0 0.0 3.0 59 110
- 0.121005 0 2 tcp 1040 ------- 0 0.0 3.0 59 110
r 0.121072 2 0 ack 40 ------- 0 3.0 0.0 40 91
+ 0.121072 0 2 tcp 1040 ------- 0 0.0 3.0 60 111
- 0.121072 0 2 tcp 1040 ------- 0 0.0 3.0 60 111
r 0.121138 2 0 ack 40 ------- 0 3.0 0.0 41 92
+ 0.121138 0 2 tcp 1040 ------- 0 0.0 3.0 61 112
- 0.121138 0 2 tcp 1040 ------- 0 0.0 3.0 61 112
r 0.121205 2 0 ack 40 ------- 0 3.0 0.0 42 93
+ 0.121205 0 2 tcp 1040 ------- 0 0.0 3.0 62 113
- 0.121205 0 2 tcp 1040 ------- 0 0.0 3.0 62 113
r 0.121272 2 0 ack 40 ------- 0 3.0 0.0 43 94
+ 0.121272 0 2 tcp 1040 ------- 0 0.0 3.0 63 114
- 0.121272 0 2 tcp 1040 ------- 0 0.0 3.0 63 114
r 0.121338 2 0 ack 40 ------- 0 3.0 0.0 44 95
+ 0.121338 0 2 tcp 1040 ------- 0 0.0 3.0 64 115
- 0.121338 0 2 tcp 1040 ------- 0 0.0 3.0 64 115
r 0.121405 2 0 ack 40 ------- 0 3.0 0.0 45 96
+ 0.121405 0 2 tcp 1040 ------- 0 0.0 3.0 65 116
- 0.121405 0 2 tcp 1040 ------- 0 0.0 3.0 65 116
r 0.121472 2 0 ack 40 ------- 0 3.0 0.0 46 97
+ 0.121472 0 2 tcp 1040 ------- 0 0.0 3.0 66 117
- 0.121472 0 2 tcp 1040 ------- 0 0.0 3.0 66 117
r 0.121538 2 0 ack 40 ------- 0 3.0 0.0 47 98